# LAMMPS data file written by OVITO Pro 3.6.0
127 atoms
3 atom types
0.0 10.0025 xlo xhi
0.0 12.353714 ylo yhi
0.0 10.615024 zlo zhi

Masses

1 7.01
2 30.974
3 32.066

Atoms  # atomic

22 3 1.5050661725 0.3317367528 1.0762360533
16 2 1.0357288675 1.6151369221 1.8456129928
28 3 1.59123771 1.5425959135 3.2773355849
2 1 1.0705575725 0.1826101296 4.5371266332
31 3 1.5597598425 2.8993672609 1.1207342339
7 1 3.5340532925 0.1095683014 1.1128791162
3 1 3.49987475 1.7335225633 3.6580115756
32 3 4.4674665875 1.6612903976 1.8646563459
25 3 1.5556788225 0.3088181426 6.4489773758
11 1 1.59735924 0.0372046922 9.8062334764
30 3 1.66609642 2.8446773691 6.5037402846
15 2 1.072568075 1.6032279418 7.1822526187
17 3 1.54730673 1.5577415668 8.6690034952
12 1 3.5576191825 0.0990652973 6.3686641042
5 1 3.579154565 1.6277500641 8.8920251494
23 3 4.4996946425 1.6048956932 7.1614471716
8 1 1.06510621 4.6211908571 2.1120925553
27 3 2.0011301575 4.832377598 3.8075135736
9 1 3.5563588675 3.2204773489 1.0921692043
18 3 4.093483115 3.5081582869 4.4782769401
21 3 4.03116754 4.755661034 2.2648533657
13 2 3.5407149575 4.7797384226 3.7583766275
20 3 4.0981542825 6.0670448363 4.4630337657
10 1 1.6176143025 3.1882465091 9.7539969433
4 1 1.13072261 4.6327539334 6.5846798426
29 3 0.687735891 4.7181304509 9.0333535789
6 1 3.5797047025 3.1886171205 6.3788863723
19 3 3.6334781425 3.4502934905 9.7307500407
26 3 3.825936245 4.7417878132 7.5238122459
14 2 4.19272792 4.7236772685 9.0231206958
24 3 3.6398197275 5.9913289231 9.7491246472
54 3 1.539484775 6.5633800036 1.1279206052
48 2 1.00953232 7.840334005 1.8436067533
60 3 1.52114019 7.8722312945 3.3187235635
34 1 1.02813697 6.348684808 4.436198985
63 3 1.5218703725 9.1244531604 1.1174754216
39 1 3.54284549 6.2614799409 1.0934323922
35 1 3.5494371375 7.8275973258 3.6218143437
64 3 4.454573365 7.8390739261 1.8408574621
57 3 1.5407750975 6.5496673811 6.3386129713
43 1 1.6300774175 6.2167471425 9.7628923334
62 3 1.5635807975 9.0867743327 6.3969531432
47 2 1.0486320925 7.8043970509 7.1211950006
49 3 1.591697825 7.7872995108 8.5770561573
44 1 3.5676216825 6.2566002239 6.3682182732
37 1 3.619364615 7.790400293 8.8790960502
55 3 4.492462835 7.8284003172 7.1277550855
33 1 1.0462314925 9.3791990968 4.5134232846
40 1 1.0570642 10.9350628991 1.9816339104
59 3 1.971832835 10.9216097046 3.7694587125
41 1 3.544906005 9.3993232969 1.0963302937
50 3 4.0552435575 9.6422837901 4.4603800097
53 3 4.03452838 10.925908797 2.2629108163
45 2 3.52828185 10.928330125 3.7421356408
52 3 4.05953463 12.1995890641 4.4732135737
42 1 1.606181445 9.3277211706 9.7896103488
36 1 1.58075509 10.8848450517 7.2918102814
61 3 0.6864615725 10.8591616803 9.0348609123
38 1 3.569952265 9.3554676122 6.3502894977
51 3 3.62966719 9.6080516486 9.7563322485
58 3 3.62146514 10.8903671618 7.565412525
46 2 4.14171517 10.8887241179 9.0313473394
56 3 3.628806975 12.1547697897 9.7750253058
86 3 6.5511473775 0.3789180573 1.16763141
80 2 6.0257560625 1.6591037902 1.8966924883
92 3 6.53619364 1.6574854537 3.3683488007
66 1 6.0584442325 0.1401726513 4.5346639476
95 3 6.5574689575 2.9358724858 1.1728858468
71 1 8.5734928375 0.0985752255 1.1073699187
67 1 8.6531727525 1.7119282713 3.6644548951
96 3 9.47368783 1.6502461773 1.8495723968
89 3 6.5913774325 0.362604978 6.4295624969
75 1 6.5952383975 0.0850148007 9.8369745859
94 3 6.5592694075 2.9076318956 6.4514931365
79 2 6.0549433575 1.6245504521 7.1751936277
81 3 6.5767137675 1.618768914 8.6417971886
76 1 8.607211265 0.1036285122 6.3679741276
69 1 8.637938945 1.6298749029 8.9049117885
87 3 9.511557295 1.6356440873 7.1518299599
65 1 6.090822325 3.2221327466 4.5339739711
72 1 6.0343182025 4.756525794 1.9746916847
91 3 6.931592465 4.8215928056 3.7224023112
73 1 8.58138481 3.2142016622 1.1089409423
82 3 8.8965135725 3.482536684 4.527732337
85 3 9.0448906575 4.7298541255 2.2931954798
77 2 8.4930327275 4.7537709158 3.7584721627
84 3 9.036918665 6.0444128322 4.4684580429
74 1 6.61917438 3.1648485748 9.8435877458
68 1 6.5303621825 4.7233807793 7.3207999119
93 3 5.7520876625 4.7226766176 9.1436118332
70 1 8.5478064175 3.1388934217 6.3755001797
83 3 8.6083415475 3.4509729448 9.7572132955
90 3 8.641699885 4.7223554211 7.5431952798
78 2 9.144745615 4.7204900103 9.0242565034
88 3 8.6087816575 5.9953315265 9.7516297929
118 3 6.558819295 6.5790321593 1.159712602
112 2 6.0129728675 7.8512052733 1.8767256282
124 3 6.512727775 7.8652267387 3.3545280394
98 1 6.0471414075 6.3289559268 4.5292609004
127 3 6.534053105 9.1346449744 1.156613015
103 1 8.58406548 6.2427022956 1.1002896977
99 1 8.536433575 7.8346636502 3.6133966297
1 3 9.45144227 7.8315134532 1.8375986497
121 3 6.57568351 6.5503097742 6.4268981259
107 1 6.6128828075 6.2813076519 9.8409764499
126 3 6.576783785 9.0940136091 6.4200302053
111 2 6.048731805 7.8228658534 7.1547384765
113 3 6.5540681075 7.8198268397 8.6261400282
108 1 8.542955205 6.2864344432 6.3628470711
101 1 8.603050225 7.7986649276 8.8878109849
119 3 9.4922024575 7.8160466032 7.1393254616
97 1 6.04735146 9.3797055991 4.5327850884
104 1 6.0563137 10.9383242796 1.9968346247
123 3 6.9752933875 10.9289478107 3.7735454968
105 1 8.5543880625 9.3950489119 1.0944938946
114 3 9.049201735 9.6358598589 4.4615795074
117 3 9.03549831 10.9149016378 2.2629426614
109 2 8.5338029175 10.9248216702 3.7414987393
116 3 9.0676763525 12.1965500505 4.466706564
106 1 6.5904772075 9.3563076648 9.8226018434
100 1 6.5951383725 10.9092312831 7.2934556101
125 3 5.701164935 10.8935914812 9.0396270581
102 1 8.5809146925 9.3550475859 6.3564780567
115 3 8.604770655 9.6080269412 9.7555361217
122 3 8.616573605 10.8944438875 7.561421276
110 2 9.131422285 10.8809289243 9.0295215553
120 3 8.6197844075 12.1509771995 9.7709172915
