# LAMMPS data file written by OVITO Pro 3.6.0
127 atoms
3 atom types
0.0 10.0025 xlo xhi
0.0 12.353714 ylo yhi
0.0 10.615024 zlo zhi

Masses

1 7.01
2 30.974
3 32.066

Atoms  # atomic

22 3 1.513358245 0.3479682976 1.1102359752
16 2 1.0335883325 1.6340628119 1.8671402615
28 3 1.5676218075 1.5862168776 3.3132674411
2 1 1.0715978325 0.1683502375 4.5423916851
31 3 1.563810855 2.9085707779 1.1347036055
7 1 3.5410950525 0.1122936543 1.1193330508
3 1 3.497854245 1.7177098094 3.6682550737
32 3 4.4694870925 1.661401581 1.8878395583
25 3 1.5355537925 0.2717767665 6.4621612356
11 1 1.59771933 0.0517560083 9.8216677213
30 3 1.680159935 2.7856142624 6.4407401172
15 2 1.0729581725 1.5840426239 7.1762975902
17 3 1.5598198575 1.5668215466 8.6567219124
12 1 3.550827485 0.0981209794 6.3724005927
5 1 3.59053741 1.630690248 8.8956767176
23 3 4.4995346025 1.607625864 7.1581458992
8 1 1.0777993825 4.6776226227 2.0361102135
27 3 1.971512755 4.8115245287 3.8268859924
9 1 3.559069545 3.2140781251 1.0910333968
18 3 4.06429582 3.5031920938 4.4880852223
21 3 4.00192023 4.7549568723 2.2733135398
13 2 3.530182325 4.7762793827 3.765679764
20 3 4.07893948 6.059496717 4.4642120333
4 1 0.9382324995 3.9293581657 5.2136114977
10 1 1.623065665 3.2009708345 9.7473413232
24 3 3.6392795925 5.9918601328 9.7510990417
29 3 0.6541324922 4.7195634817 9.1654257075
6 1 3.5663813725 3.2142016622 6.4237454637
19 3 3.63522858 3.4505158573 9.7342954587
26 3 3.921960245 4.7401077081 7.5309667721
14 2 4.215513615 4.7246532119 9.0418774432
54 3 1.546246465 6.5692109566 1.138907155
48 2 1.0146435975 7.8519588498 1.8435536782
60 3 1.5352537175 7.8950238968 3.3144563238
34 1 1.0544735525 6.4274397348 4.4611655215
63 3 1.522880625 9.1319642185 1.1107348813
39 1 3.5493571175 6.2725982835 1.0855135843
35 1 3.5536381875 7.8410134592 3.6355607998
64 3 4.4531230025 7.8422735381 1.85321335
57 3 1.57619395 6.6384288162 6.2884675979
43 1 1.63380835 6.2223310212 9.7398365012
62 3 1.539684825 9.1537191089 6.41989221
47 2 1.0583345175 7.8325388114 7.1124269908
49 3 1.60476109 7.8029146052 8.5723430866
44 1 3.50507605 6.233054045 6.3981314108
37 1 3.62198527 7.7900049741 8.8685553313
55 3 4.496823925 7.8234341242 7.1165456201
33 1 1.050682605 9.3931587936 4.5299084169
40 1 1.056003935 10.9357670608 1.980126577
59 3 1.9726030275 10.9306896843 3.760393482
41 1 3.5469365125 9.4003363014 1.0981030028
50 3 4.05297299 9.6502519357 4.466281963
53 3 4.04056989 10.9277495004 2.2653098117
45 2 3.528882 10.93303689 3.7423904013
52 3 4.05637384 12.2071618908 4.4726934375
42 1 1.610222455 9.3294383368 9.7837190105
36 1 1.58127522 10.8855121522 7.3197065645
61 3 0.6851242382 10.8707000492 9.0563244909
38 1 3.556228835 9.3532068825 6.3596201038
51 3 3.6356386825 9.6109671251 9.762276662
58 3 3.631887745 10.8969763988 7.5730234972
46 2 4.1462663075 10.8930232104 9.0397225933
56 3 3.6280167775 12.1581794148 9.7842391466
86 3 6.5551283725 0.3868763199 1.1834690258
80 2 6.02826669 1.6637858478 1.9156296911
92 3 6.5451458775 1.6679861106 3.3877318345
66 1 6.058534255 0.1382541195 4.5426889058
95 3 6.551817545 2.9439765222 1.1968121109
71 1 8.576363555 0.1077233978 1.1134523275
67 1 8.6493618 1.710729961 3.6763649521
96 3 9.4713972575 1.6626493061 1.8650278717
89 3 6.590547225 0.3595943779 6.4332459102
75 1 6.59900934 0.091132854 9.8455196802
94 3 6.5653309225 2.9024927506 6.4467269907
79 2 6.0544432325 1.6231544825 7.1761595949
81 3 6.573582985 1.6204490191 8.643293907
76 1 8.6063810575 0.1013488814 6.3745342125
69 1 8.6342480225 1.6407708786 8.9146988407
87 3 9.5119673975 1.6399061186 7.152318251
65 1 6.0537830675 3.2100508143 4.5589723526
72 1 6.0397795675 4.7539932826 1.9892979577
91 3 6.968641725 4.775402269 3.7741717832
73 1 8.5756133675 3.2179448376 1.115023351
82 3 9.0470712025 3.5456147477 4.5733344801
85 3 9.0502119875 4.732077794 2.3033646728
77 2 8.525070735 4.7800719729 3.7720169333
84 3 9.0534127875 6.0802880177 4.4625348596
74 1 6.62093482 3.1603147618 9.8628327843
68 1 6.506966335 4.7364757162 7.3549165991
93 3 5.7687518275 4.7232325348 9.2097328177
70 1 8.5329327 3.1697529993 6.4463448498
83 3 8.579364305 3.4408676067 9.7922004146
90 3 8.592127495 4.7236772685 7.6058876115
78 2 9.1233302625 4.7220959931 9.0734465246
88 3 8.5774738325 6.0044732748 9.7906506211
118 3 6.5529478275 6.5694456772 1.1891374486
112 2 6.011162415 7.8491669105 1.8935822863
124 3 6.5073964425 7.8614835633 3.3728283408
98 1 6.048371715 6.3211113184 4.5536011504
127 3 6.5393044175 9.1272203923 1.1692024335
103 1 8.580764655 6.2545124462 1.1078900549
99 1 8.5354833375 7.8605076199 3.6227378508
1 3 9.4571336925 7.8391974633 1.8457934482
121 3 6.5963386725 6.5563013255 6.4306558444
107 1 6.61441319 6.2911659156 9.8598499626
126 3 6.5799745825 9.0997333787 6.4267707456
111 2 6.0526827925 7.8227176088 7.1552161526
113 3 6.547296415 7.8232241111 8.6315855356
108 1 8.5997393975 6.264457186 6.4041713595
101 1 8.60367038 7.7927969135 8.8924285203
119 3 9.4975838025 7.8279679372 7.1516601195
97 1 6.0463212025 9.3828310887 4.5466058496
104 1 6.0591043975 10.9364835762 1.9996688361
123 3 6.9747932625 10.9323080209 3.7755305063
105 1 8.55609849 9.3978284975 1.0964152139
114 3 9.05114222 9.6455945855 4.4645623291
117 3 9.0354883075 10.921807364 2.2651612014
109 2 8.5329827125 10.9312703089 3.7433032934
116 3 9.064165475 12.2070383537 4.4660696625
106 1 6.5897770325 9.3541087037 9.8279730455
100 1 6.594268155 10.906167562 7.3027331411
125 3 5.705686065 10.901287845 9.0545093218
102 1 8.58898671 9.3561594202 6.3673159962
115 3 8.6009997125 9.6148338376 9.7641024461
122 3 8.61763387 10.9021649587 7.5722486004
110 2 9.130382025 10.8877111133 9.0405081051
120 3 8.61871414 12.1594765548 9.7808104939
