# LAMMPS data file written by OVITO Pro 3.6.0
127 atoms
3 atom types
0.0 10.0025 xlo xhi
0.0 12.353714 ylo yhi
0.0 10.615024 zlo zhi

Masses

1 7.01
2 30.974
3 32.066

Atoms  # atomic

22 3 1.5277118325 0.3514433974 1.1493523386
16 2 1.0124830575 1.6435504643 1.8599645053
28 3 1.5161689475 1.6453788139 3.3353573061
2 1 1.050282505 0.111920325 4.5331778443
31 3 1.550407505 2.9048893711 1.119439201
7 1 3.545946265 0.0902482046 1.1075397591
3 1 3.530502405 1.6684555517 3.6437237533
32 3 4.44867189 1.6434392808 1.8631808576
25 3 1.5156088075 0.244802432 6.4429905023
11 1 1.6025905475 0.1133889346 9.8180904582
30 3 1.6346985725 2.7423392023 6.2892318796
15 2 1.0669566725 1.583091388 7.1206960945
17 3 1.599179695 1.6161499266 8.5871192
12 1 3.5432155825 0.1080427413 6.3644393247
5 1 3.6186544375 1.6580166634 8.8607851338
23 3 4.5033555575 1.6409438306 7.108510047
8 1 1.0612752525 4.7380693453 1.9245356963
27 3 1.9770041275 4.7380693453 3.7092502964
9 1 3.562270345 3.2081730498 1.0683066304
18 3 4.0552235525 3.4619801039 4.4412941965
21 3 4.05137259 4.7380693453 2.232244012
13 2 3.534903505 4.7380693453 3.7096005922
20 3 4.0552235525 6.0141585866 4.4412941965
4 1 1.0639959325 3.2005508083 4.5253227265
10 1 1.6311576875 3.2204279341 9.7211965191
24 3 3.635368615 6.0094147604 9.727332003
29 3 0.6438379193 4.7380693453 9.1909229952
6 1 3.5112075825 3.2406139028 6.3847352505
19 3 3.635368615 3.4667115764 9.727332003
26 3 3.9137681975 4.7380693453 7.516753255
14 2 4.2130229925 4.7380693453 9.0261778227
54 3 1.550407505 6.5712369657 1.119439201
48 2 1.0124830575 7.8325882263 1.8599645053
60 3 1.5161689475 7.8307475229 3.3353573061
34 1 1.0639959325 6.2755878823 4.5253227265
63 3 1.5277118325 9.124687881 1.1493523386
39 1 3.562270345 6.2679656407 1.0683066304
35 1 3.530502405 7.8076831389 3.6437237533
64 3 4.44867189 7.8326994097 1.8631808576
57 3 1.6346985725 6.7337994883 6.2892318796
43 1 1.6311576875 6.2556984027 9.7211965191
62 3 1.5156088075 9.2313251402 6.4429905023
47 2 1.0669566725 7.8930349489 7.1206960945
49 3 1.599179695 7.8599764102 8.5871192
44 1 3.5112075825 6.2355247878 6.3847352505
37 1 3.6186544375 7.8181096735 8.8607851338
55 3 4.5033555575 7.8351825062 7.108510047
33 1 1.050282505 9.3642140417 4.5331778443
40 1 1.0392897575 10.9149263453 1.9747553748
59 3 1.9617603175 10.9149263453 3.7394394247
41 1 3.545946265 9.3858824561 1.1075397591
50 3 4.037349085 9.635983396 4.4642863385
53 3 4.0409599875 10.9149263453 2.2621146895
45 2 3.5182493425 10.9149263453 3.733855922
52 3 4.037349085 12.1938692946 4.4642863385
42 1 1.6025905475 9.3627439497 9.8180904582
36 1 1.5818453625 10.9149263453 7.358886618
61 3 0.6823525455 10.9149263453 9.0913009949
38 1 3.5432155825 9.3680931079 6.3644393247
51 3 3.628366865 9.6406778073 9.7760974232
58 3 3.638689445 10.9149263453 7.5767069105
46 2 4.14631632 10.9149263453 9.044902725
56 3 3.628366865 12.1891748832 9.7760974232
86 3 6.535373435 0.3630558885 1.1744356403
80 2 6.0067713175 1.6410303066 1.8996222349
92 3 6.50826666 1.6366200307 3.3769363551
66 1 6.0401796675 0.1133999294 4.5471153708
95 3 6.5428453025 2.9172430851 1.1859954015
71 1 8.55033705 0.0942572318 1.1038245007
67 1 8.552277535 1.6552741389 3.6372592036
96 3 9.4547530975 1.649307295 1.8471734014
89 3 6.5869963375 0.362595095 6.4254226375
75 1 6.5903171675 0.1111894793 9.833047027
94 3 6.604350675 2.9082495813 6.4238940741
79 2 6.0597845675 1.6424262763 7.1494840396
81 3 6.55127741 1.6379789393 8.6276367466
76 1 8.59650859 0.1044315036 6.3687702544
69 1 8.6060209675 1.6658365643 8.8895624638
87 3 9.5062259625 1.6349152182 7.1468621287
65 1 6.04987209 3.1897536622 4.5479858028
72 1 6.0584842425 4.7380693453 1.9733435766
91 3 6.9757134925 4.7380693453 3.7595442801
73 1 8.5591092425 3.2119903474 1.1042597167
82 3 9.0556133375 3.457483352 4.4639148127
85 3 9.0440704525 4.7380693453 2.2625605205
77 2 8.5341830125 4.7380693453 3.7396623402
84 3 9.0556133375 6.0186429848 4.4639148127
74 1 6.6074214425 3.1705312832 9.8526105162
68 1 6.530452205 4.7380693453 7.3462759695
93 3 5.7655510275 4.7380693453 9.1960182067
70 1 8.6330677275 3.217710117 6.3988532325
83 3 8.5659509525 3.4538884213 9.795883828
90 3 8.5850957375 4.7380693453 7.6176384431
78 2 9.11263759 4.7380693453 9.0839872434
88 3 8.5659509525 6.0222379156 9.795883828
118 3 6.5428453025 6.5588956055 1.1859954015
112 2 6.0067713175 7.8350960302 1.8996222349
124 3 6.50826666 7.8395063061 3.3769363551
98 1 6.04987209 6.2863850283 4.5479858028
127 3 6.535373435 9.1130753898 1.1744356403
103 1 8.5591092425 6.2641359894 1.1042597167
99 1 8.552277535 7.8208645517 3.6372592036
1 3 9.4547530975 7.8268190418 1.8471734014
121 3 6.604350675 6.5678767555 6.4238940741
107 1 6.6074214425 6.3056074073 9.8526105162
126 3 6.5869963375 9.1135324772 6.4254226375
111 2 6.0597845675 7.8337124143 7.1494840396
113 3 6.55127741 7.8381597513 8.6276367466
108 1 8.6330677275 6.2584162198 6.3988532325
101 1 8.6060209675 7.8103021262 8.8895624638
119 3 9.5062259625 7.8412234724 7.1468621287
97 1 6.0401796675 9.362731596 4.5471153708
104 1 6.053292945 10.9149263453 1.9950937608
123 3 6.96298031 10.9149263453 3.7716666375
105 1 8.55033705 9.3818798527 1.1038245007
114 3 9.048041445 9.6342909372 4.4559960048
117 3 9.0211447225 10.9149263453 2.2574228489
109 2 8.5206796375 10.9149263453 3.7365521381
116 3 9.048041445 12.1955493997 4.4559960048
106 1 6.5903171675 9.3649429108 9.833047027
100 1 6.593668005 10.9149263453 7.3091658456
125 3 5.7052759625 10.9149263453 9.0646042096
102 1 8.59650859 9.3717003924 6.3687702544
115 3 8.6020399725 9.6402824885 9.7776047566
122 3 8.6240254675 10.9149263453 7.5812289108
110 2 9.1269911775 10.9149263453 9.0525243123
120 3 8.6020399725 12.1895702021 9.7776047566
