# LAMMPS data file written by OVITO Pro 3.6.0
127 atoms
3 atom types
0.0 10.0025 xlo xhi
0.0 12.353714 ylo yhi
0.0 10.615024 zlo zhi

Masses

1 7.01
2 30.974
3 32.066

Atoms  # atomic

22 3 1.5055262875 0.3283036557 1.0732213865
16 2 1.0349486725 1.6110231353 1.8429910819
28 3 1.593018155 1.5375061833 3.2732700307
2 1 1.0691172125 0.1828448502 4.5359271355
31 3 1.55642901 2.8968347496 1.117655877
7 1 3.5333531175 0.1067092814 1.1102253602
3 1 3.5029855275 1.7300264623 3.6490737254
32 3 4.4664263275 1.6593138033 1.854954214
25 3 1.56323071 0.3303963748 6.4443067652
11 1 1.597539285 0.0369335281 9.8048322932
30 3 1.64753178 2.87651289 6.5312331968
15 2 1.0683370175 1.6160140358 7.1862544827
17 3 1.54066507 1.5602987856 8.675128364
12 1 3.56137012 0.104527492 6.3675282966
5 1 3.5763438625 1.6297513657 8.8881825107
23 3 4.499144505 1.6174841277 7.1566916409
8 1 1.0527531225 4.6235257091 2.0952252822
27 3 2.0177943225 4.8296227197 3.7459145893
9 1 3.5581393125 3.2210456198 1.0924133499
18 3 4.09630382 3.5053169326 4.4639254277
21 3 4.067236555 4.7538450381 2.2482620832
13 2 3.5535181575 4.7765758718 3.7340257624
20 3 4.09950462 6.0624986695 4.4524930468
10 1 1.60816194 3.1779558654 9.769781484
4 1 1.3011552075 4.6815758112 7.0098009388
29 3 0.6929792015 4.7238378667 8.9947042765
6 1 3.5639207575 3.188987732 6.353091864
19 3 3.6251760675 3.451738875 9.7343166888
26 3 3.7468064675 4.7447279971 7.5314762933
14 2 4.1700722575 4.7260985964 9.0195858928
24 3 3.6320177775 5.9948373779 9.7527762155
54 3 1.53458355 6.5589326666 1.1268272577
48 2 1.0074818075 7.8324646891 1.8528736692
60 3 1.511637815 7.8495622293 3.330028564
34 1 1.0299874325 6.2841366524 4.4724068319
63 3 1.5266315625 9.1181774737 1.131816319
39 1 3.543545665 6.2597133598 1.0963621388
35 1 3.5434756475 7.8219516785 3.617971705
64 3 4.4551235025 7.8378632622 1.83772603
57 3 1.5518178575 6.5479502148 6.3688339446
43 1 1.61984486 6.233054045 9.7815110855
62 3 1.565371245 9.0893562589 6.4019209744
47 2 1.049882405 7.8104750782 7.1304831466
49 3 1.5820854225 7.7978495825 8.5916624303
44 1 3.57341313 6.2631971071 6.3490156948
37 1 3.61414331 7.7954406083 8.8803910831
55 3 4.4928729375 7.825645439 7.1300160856
33 1 1.0453512725 9.3685254879 4.5137311203
40 1 1.05698418 10.9317150426 1.9850519481
59 3 1.9707025525 10.9173970881 3.7726113747
41 1 3.54544614 9.3980385106 1.0978163971
50 3 4.055073515 9.6387629816 4.4591168218
53 3 4.03244786 10.9249204999 2.2629745065
45 2 3.5272315875 10.9254640633 3.7425283967
52 3 4.0590445075 12.1970936139 4.4727358976
42 1 1.603020655 9.3351210452 9.8007985841
36 1 1.5808651175 10.8947033155 7.2882542484
61 3 0.685563348 10.8623736459 9.0324300718
38 1 3.571392625 9.3560852979 6.3502364225
51 3 3.6270965475 9.612227204 9.756555164
58 3 3.6204348825 10.8932455772 7.5634699756
46 2 4.1409849875 10.891096031 9.0295427853
56 3 3.6296771925 12.1585376725 9.7717240333
86 3 6.54899684 0.3736491983 1.1614110059
80 2 6.02446574 1.6554717983 1.8875741827
92 3 6.532892815 1.6533593132 3.3594534105
66 1 6.05719392 0.1399107525 4.5322224921
95 3 6.559499465 2.9298562271 1.1609439448
71 1 8.5712522775 0.0941713735 1.1045675524
67 1 8.642980205 1.7019958852 3.6544767726
96 3 9.473267725 1.6447487745 1.845241467
89 3 6.5866762575 0.365538985 6.4275987175
75 1 6.59336793 0.0863776624 9.8317732241
94 3 6.564860805 2.9116097915 6.4458990188
79 2 6.05547349 1.6318514971 7.1701833364
81 3 6.5757935375 1.624081011 8.63799701
76 1 8.602530095 0.1064332994 6.365925428
69 1 8.63431804 1.6270459024 8.9014194456
87 3 9.5071862025 1.6337169079 7.153188683
65 1 6.0982741875 3.2210703272 4.524664595
72 1 6.046331205 4.7562416586 1.9635777545
91 3 6.922190115 4.8252124438 3.709048611
73 1 8.57926428 3.2079630367 1.1095778437
82 3 8.8708071475 3.465303253 4.4983074904
85 3 9.0365885825 4.7299529552 2.2784512115
77 2 8.48356036 4.748446465 3.7441524953
84 3 9.02997693 6.0338256993 4.4582570049
74 1 6.6146232425 3.1700124273 9.833036412
68 1 6.548136625 4.7222318839 7.3045801553
93 3 5.7313224725 4.7247396879 9.1060558783
70 1 8.5816948875 3.1523342625 6.3567540473
83 3 8.6248856825 3.4534436876 9.7589116994
90 3 8.6221850075 4.7260615353 7.5479295805
78 2 9.139984425 4.7234054868 9.0179299491
88 3 8.62307523 5.996863387 9.7544746193
118 3 6.560219645 6.5826394438 1.1480148456
112 2 6.0135930225 7.8515511773 1.8709935152
124 3 6.515688515 7.864176673 3.3477450391
98 1 6.048211675 6.329548905 4.5204822756
127 3 6.531812545 9.1370539487 1.1525686909
103 1 8.5802545275 6.2474708292 1.10132997
99 1 8.5423850625 7.8273131904 3.6128552635
1 3 9.4495117875 7.830784584 1.8363673069
121 3 6.574383185 6.5490867565 6.4218347594
107 1 6.60837168 6.2788122016 9.8312424729
126 3 6.5749533275 9.0933465085 6.418119501
111 2 6.049812075 7.8209880888 7.1523819412
113 3 6.5580391 7.8176896472 8.6229767511
108 1 8.5557384 6.2800352193 6.350427493
101 1 8.60399046 7.8038534875 8.8858896655
119 3 9.493072675 7.8168495946 7.1379667386
97 1 6.0482016725 9.376295974 4.5290485999
104 1 6.0552034225 10.9370642008 1.995603282
123 3 6.974723245 10.9277000856 3.7729192104
105 1 8.553477835 9.3938382479 1.0951732561
114 3 9.0486616 9.6338956183 4.4611442914
117 3 9.03501819 10.9135303756 2.2625074454
109 2 8.53337281 10.9225609405 3.7411696736
116 3 9.066926165 12.1944252117 4.4665791837
106 1 6.5911173675 9.3572341933 9.8198950123
100 1 6.593227895 10.9108249122 7.2899632672
125 3 5.7002947175 10.8933938218 9.0365699312
102 1 8.57946433 9.3548993414 6.3546204275
115 3 8.6058609275 9.6094105572 9.75475061
122 3 8.6150032125 10.8949133286 7.5595318017
110 2 9.130342015 10.8826090295 9.0275153157
120 3 8.61739381 12.1522002172 9.7683484557
