# LAMMPS data file written by OVITO Pro 3.6.0
127 atoms
3 atom types
0.0 10.0025 xlo xhi
0.0 12.353714 ylo yhi
0.0 10.615024 zlo zhi

Masses

1 7.01
2 30.974
3 32.066

Atoms  # atomic

22 3 1.50521621 0.3339134772 1.0799831568
16 2 1.0359489225 1.6169652717 1.8498802325
28 3 1.5895672925 1.5460425997 3.2828447823
2 1 1.071327765 0.1823198173 4.5398759244
31 3 1.561850365 2.9006891083 1.1272837037
7 1 3.5343533675 0.110514843 1.1135584777
3 1 3.4987444675 1.7312247725 3.6631174021
32 3 4.4668864425 1.6616857164 1.8713650411
25 3 1.552087925 0.3005077992 6.4527244793
11 1 1.59643901 0.038481325 9.8068916079
30 3 1.677399245 2.8307423797 6.4909173356
15 2 1.07474862 1.6008189675 7.1810955811
17 3 1.5507575925 1.5586310342 8.6666681899
12 1 3.5548584925 0.0977651925 6.3696513014
5 1 3.57973471 1.6270829635 8.8942436894
23 3 4.5012350275 1.5991759236 7.1641433877
8 1 1.07402844 4.6224879971 2.1208605652
27 3 1.98257552 4.8279055535 3.8847060281
9 1 3.5526179325 3.2176112873 1.091999364
18 3 4.09086246 3.5080100423 4.4904948328
21 3 3.9876266575 4.7564640254 2.2812217327
13 2 3.5295121575 4.7804178769 3.7828761029
20 3 4.09590372 6.0700097276 4.4703156721
10 1 1.618384495 3.1934227153 9.7491777224
4 1 1.140064945 4.5664391967 6.1152197912
29 3 0.6744015583 4.7167962498 9.1012366574
6 1 3.5904873975 3.1845651023 6.4013371481
19 3 3.634608425 3.4497252196 9.7305802003
26 3 3.8578342175 4.7413801406 7.5226552083
14 2 4.1996196425 4.7230225216 9.0262096678
24 3 3.6413000975 5.9902047352 9.7497615487
54 3 1.54294564 6.564528899 1.1358924882
48 2 1.0106225925 7.8462390802 1.8389573728
60 3 1.5286520675 7.8907495118 3.3121104035
34 1 1.021995435 6.4086867969 4.415404153
63 3 1.5192097075 9.1273315758 1.1076565244
39 1 3.5411350625 6.2646795528 1.0916809132
35 1 3.5534381375 7.8340089034 3.6249033157
64 3 4.4527129 7.8402845901 1.8438402838
57 3 1.53306317 6.5455165332 6.3169901674
43 1 1.63252803 6.2097178792 9.7568523847
62 3 1.5629406375 9.0820428602 6.3945223027
47 2 1.0482920075 7.7937110883 7.113382343
49 3 1.5977293325 7.7774288933 8.5672478751
44 1 3.5602398375 6.2562419662 6.3837905134
37 1 3.621285095 7.7876824759 8.877238421
55 3 4.4933730625 7.8290797715 7.125780691
33 1 1.046841645 9.3868213383 4.5160770406
40 1 1.0570341925 10.9369406636 1.9800522718
59 3 1.9724829975 10.9243275216 3.768322905
41 1 3.5447159575 9.4005339609 1.0945575847
50 3 4.0556636625 9.6444086289 4.4611230614
53 3 4.0351785425 10.9262423473 2.2629214313
45 2 3.528882 10.9299608152 3.7421144107
52 3 4.0601447825 12.2011703395 4.4732348037
42 1 1.607101675 9.3228043924 9.7807255737
36 1 1.58007492 10.8795947232 7.2928823988
61 3 0.6870487193 10.8578892477 9.0359011847
38 1 3.568231835 9.3538863368 6.3510750094
51 3 3.6304373825 9.6061244693 9.7557165772
58 3 3.6218352325 10.8893418036 7.5657946659
46 2 4.1416851625 10.887723467 9.0317719404
56 3 3.62790675 12.1530279161 9.7764689491
86 3 6.5518475525 0.3826179946 1.1708477622
80 2 6.0254159775 1.6612903976 1.9019150801
92 3 6.5380441025 1.6603515153 3.373359092
66 1 6.0595245025 0.1399070464 4.5362562012
95 3 6.5522076425 2.9409251548 1.1808471148
71 1 8.5746931375 0.1010143428 1.1081766605
67 1 8.658023965 1.7161408877 3.6716624964
96 3 9.4736978325 1.6524574921 1.8544765379
89 3 6.59344795 0.3606246776 6.4299977129
75 1 6.5966587525 0.0848123233 9.83877914
94 3 6.5589093175 2.904938786 6.4528518596
79 2 6.05635371 1.6211531808 7.1771361771
81 3 6.57760399 1.6158163763 8.6432514469
76 1 8.6097218925 0.1037371013 6.369895447
69 1 8.63911924 1.6343222399 8.9074806243
87 3 9.51409793 1.6373488998 7.1511718284
65 1 6.08708139 3.2204773489 4.5415637132
72 1 6.0252359325 4.7562910734 1.9805193328
91 3 6.9386642325 4.8166019052 3.7309155604
73 1 8.5816748825 3.2163882696 1.108367731
82 3 8.923610345 3.4987941717 4.5474656666
85 3 9.0496518475 4.729483514 2.3005835365
77 2 8.4995143475 4.75834179 3.7650322475
84 3 9.043280255 6.0517879995 4.4720565361
74 1 6.6198045375 3.163415544 9.8484069667
68 1 6.5282616575 4.7245543822 7.3337077811
93 3 5.7573289725 4.7217500891 9.1615087637
70 1 8.5430852375 3.1441684576 6.3978872653
83 3 8.5910172175 3.446772682 9.7652276387
90 3 8.6338879325 4.7215277222 7.5602217783
78 2 9.14008445 4.7197487874 9.040465645
88 3 8.59166738 5.9980122824 9.7600050468
118 3 6.5535279725 6.5747701279 1.1680241658
112 2 6.0111024 7.8505999413 1.8801330509
124 3 6.5102171475 7.8652267387 3.3584025232
98 1 6.0478815925 6.3291659399 4.5360757458
127 3 6.53475328 9.1320506945 1.1585343344
103 1 8.5845355975 6.2410098368 1.0997907916
99 1 8.5306621325 7.8411987649 3.6147871978
1 3 9.45284262 7.8326376411 1.8405496264
121 3 6.57920439 6.5516069142 6.4282037738
107 1 6.6133429225 6.2819623987 9.8452224595
126 3 6.57756398 9.0949154302 6.4203911162
111 2 6.04963203 7.8233723556 7.1549932371
113 3 6.55191757 7.8215192985 8.6272333757
108 1 8.54961687 6.2790222148 6.379618809
101 1 8.60223002 7.7932787083 8.8888724873
119 3 9.4918823775 7.8147000484 7.1400366682
97 1 6.0471614125 9.3816698396 4.5353539242
104 1 6.0567138 10.9388554893 1.9970363102
123 3 6.9755934625 10.9294419592 3.7732907362
105 1 8.5544280725 9.3956542438 1.093358087
114 3 9.0494618 9.6367493263 4.4616113525
117 3 9.035878405 10.9153834327 2.2630700417
109 2 8.5340029675 10.9259211507 3.7415518144
116 3 9.06790641 12.1976742385 4.4666428738
106 1 6.59056723 9.3554552585 9.8229627542
100 1 6.5960586025 10.9082059249 7.2947718731
125 3 5.7012149475 10.8939126778 9.0411025464
102 1 8.58238506 9.3532810048 6.3585373713
115 3 8.6044205675 9.6074833778 9.7560350279
122 3 8.617253775 10.8942956429 7.5622067877
110 2 9.1320524425 10.8800765181 9.0302539919
120 3 8.621094735 12.1502730378 9.7722441695
