# LAMMPS data file written by OVITO Pro 3.6.0
127 atoms
3 atom types
0.0 10.0025 xlo xhi
0.0 12.353714 ylo yhi
0.0 10.615024 zlo zhi

Masses

1 7.01
2 30.974
3 32.066

Atoms  # atomic

22 3 1.528121935 0.3644024433 1.1553498272
16 2 1.0254462975 1.6557188726 1.8846975112
28 3 1.533003155 1.6503202995 3.3520653538
2 1 1.0656363425 0.1531625815 4.5471259858
31 3 1.56063006 2.9191826182 1.1416670612
7 1 3.548186825 0.1103003825 1.122114187
3 1 3.510577425 1.7073326897 3.6658985384
32 3 4.4640657375 1.6604626987 1.887722793
25 3 1.52966232 0.2638370345 6.4647406864
11 1 1.5971891975 0.069981072 9.8397875672
30 3 1.668757085 2.7718275176 6.4063262094
15 2 1.07090766 1.5828813748 7.170894543
17 3 1.5673417375 1.5787058195 8.6486757242
12 1 3.549947265 0.1019218466 6.3754364895
5 1 3.5976891975 1.635742917 8.8926089757
23 3 4.50124503 1.6174470666 7.1516601195
8 1 1.07358833 4.717302752 1.9906991409
27 3 1.9760438875 4.7974783559 3.7771333749
9 1 3.56257042 3.2173395056 1.0887193215
18 3 4.054913475 3.496446966 4.4792959824
21 3 4.026786445 4.7540797586 2.2627091309
13 2 3.535103555 4.7719802902 3.747995134
20 3 4.07305801 6.0509850081 4.4591592819
4 1 1.0023405225 3.5191407386 4.8387843852
10 1 1.6240959225 3.2082595258 9.7475005486
24 3 3.636648935 5.9960233345 9.7498358539
29 3 0.6488751783 4.725295605 9.1788643279
6 1 3.550547415 3.2279636996 6.4239365342
19 3 3.6332380825 3.4541231418 9.7359301724
26 3 3.9320727725 4.7411824812 7.5333233074
14 2 4.21729406 4.7281246055 9.0456776218
54 3 1.54802691 6.5750048485 1.1355952675
48 2 1.0149436725 7.8505875876 1.8541899322
60 3 1.5286720725 7.8761968367 3.3268440568
34 1 1.053963425 6.3711438601 4.4986047111
63 3 1.5265915525 9.1347314504 1.1286742719
39 1 3.554668445 6.2761685068 1.0836453401
35 1 3.5465964275 7.8365167073 3.6425454856
64 3 4.4524628375 7.8440277654 1.8596566696
57 3 1.6086120525 6.6894249476 6.2915353398
43 1 1.63216794 6.234610613 9.7352508109
62 3 1.5283119825 9.1934733605 6.4364728775
47 2 1.0642159875 7.8622618473 7.1206960945
49 3 1.60424096 7.8265349064 8.583584397
44 1 3.504215835 6.2312998176 6.398195101
37 1 3.621805225 7.79657715 8.8685765614
55 3 4.500024725 7.8270167013 7.1166836154
33 1 1.052162975 9.3884149674 4.5367975675
40 1 1.0522129875 10.9321968374 1.985009488
59 3 1.9703024525 10.9340869557 3.7570497495
41 1 3.548226835 9.3992615283 1.1041004913
50 3 4.048271815 9.6526238488 4.4708039632
53 3 4.0427604375 10.9282065878 2.268515549
45 2 3.5269315125 10.9333457329 3.7434094436
52 3 4.050632405 12.2105468085 4.4725023671
42 1 1.6104325075 9.3393583691 9.7988348046
36 1 1.5829856475 10.8987059188 7.3411170679
61 3 0.6854623228 10.884832698 9.0756862946
38 1 3.5507974775 9.3578889401 6.3659785031
51 3 3.63642888 9.6175763621 9.7696328736
58 3 3.636328855 10.9039562472 7.5792439013
46 2 4.147376585 10.8989159319 9.0465692838
56 3 3.6257062 12.1643315644 9.7901729451
86 3 6.5506272475 0.384944199 1.1865792278
80 2 6.023045385 1.6617351313 1.9170096443
92 3 6.534933325 1.6630569787 3.3908208065
66 1 6.05439322 0.1350174464 4.5486333192
95 3 6.5498470525 2.9403815914 1.2001346134
71 1 8.57066213 0.1097513835 1.1162016187
67 1 8.6097218925 1.6951766351 3.6677137075
96 3 9.46552579 1.6666024946 1.8674693272
89 3 6.5890968625 0.3605147295 6.4352733798
75 1 6.5994194425 0.096769236 9.8471543939
94 3 6.576663755 2.9043581614 6.4447950563
79 2 6.057013875 1.629047204 7.1738455197
81 3 6.5701321225 1.6246986967 8.6436442028
76 1 8.603010215 0.1032270165 6.3776550295
69 1 8.627416315 1.6476766048 8.9136479533
87 3 9.5098668725 1.6390042975 7.155842439
65 1 6.05015216 3.2082965869 4.5625708457
72 1 6.0476015225 4.7546356758 1.9868671172
91 3 6.968001565 4.7670017435 3.7741823982
73 1 8.5694118175 3.2220709781 1.1189721399
82 3 9.0441104625 3.5200178523 4.5383367459
85 3 9.0485715775 4.7398112189 2.2954564799
77 2 8.52461062 4.7754146227 3.7658602194
84 3 9.046441045 6.0701826796 4.4643712587
74 1 6.620274655 3.1615007183 9.8658792962
68 1 6.5066162475 4.7394900224 7.3600330406
93 3 5.7691119175 4.7264815615 9.2215367244
70 1 8.5666711325 3.1949175147 6.4418865398
83 3 8.5775338475 3.4426094804 9.8031657344
90 3 8.577163755 4.7302247369 7.6240180725
78 2 9.1172487425 4.726852173 9.0861527083
88 3 8.574843175 6.0099212627 9.804322772
118 3 6.5514674575 6.5714346252 1.1935214535
112 2 6.01050225 7.8501675613 1.8994523946
124 3 6.50754648 7.8617059302 3.3781570828
98 1 6.0505222525 6.3167875185 4.5560956811
127 3 6.538734275 9.1278627855 1.1740534995
103 1 8.574643125 6.2636047797 1.113271872
99 1 8.54121477 7.8553561212 3.6305186634
1 3 9.45740376 7.8412111186 1.8494131714
121 3 6.600669755 6.5601803917 6.4320145674
107 1 6.61469326 6.2964038904 9.8641490473
126 3 6.58336543 9.1045513271 6.4307407646
111 2 6.0559836175 7.8255960242 7.1567022559
113 3 6.548976835 7.8265225527 8.6341331413
108 1 8.6190042125 6.257415569 6.4078335428
101 1 8.6055808575 7.7956753288 8.8950185862
119 3 9.5030651725 7.8332800343 7.1544094107
97 1 6.0455210025 9.3814474727 4.5517329062
104 1 6.0594444825 10.9333951477 2.0015264653
123 3 6.9726127175 10.932431558 3.7776853561
105 1 8.5552882875 9.3969390301 1.1012768949
114 3 9.0516523475 9.6478059003 4.4657405968
117 3 9.032877655 10.9252293428 2.2663500841
109 2 8.530592115 10.9311838329 3.7448000118
116 3 9.060564575 12.2089161182 4.4663881133
106 1 6.5902971625 9.3562829573 9.8319536795
100 1 6.59428816 10.9084529991 7.3089853902
125 3 5.7066363025 10.907205274 9.0633304067
102 1 8.59286768 9.3608414778 6.3717849213
115 3 8.6013197925 9.6214554283 9.7708217563
122 3 8.621414815 10.9078229597 7.580008183
110 2 9.13044204 10.8956051366 9.0493610351
120 3 8.61571339 12.167802958 9.7871052031
