# LAMMPS data file written by OVITO Pro 3.6.0
127 atoms
3 atom types
0.0 10.0025 xlo xhi
0.0 12.353714 ylo yhi
0.0 10.615024 zlo zhi

Masses

1 7.01
2 30.974
3 32.066

Atoms  # atomic

22 3 1.506636565 0.3393182271 1.088496406
16 2 1.0363090125 1.6229691767 1.856323552
28 3 1.5839258825 1.5576303834 3.2927910598
2 1 1.0728181375 0.1781405559 4.5407782015
31 3 1.5642409625 2.9034439866 1.1309140419
7 1 3.5369340125 0.1124460991 1.1159468581
3 1 3.4962038325 1.7257520772 3.667947238
32 3 4.4700472325 1.6621304501 1.8825214313
25 3 1.544205955 0.2865653975 6.4565246579
11 1 1.596619055 0.0428178492 9.8099381197
30 3 1.677999395 2.8104452276 6.465441278
15 2 1.0739784275 1.5936043986 7.1771574072
17 3 1.5559188825 1.5623000873 8.6602354853
12 1 3.5520577925 0.09734949 6.3705641935
5 1 3.58393576 1.6280959681 8.8950928913
23 3 4.49980467 1.6016466664 7.1618080825
8 1 1.0788196375 4.6433040052 2.0879221457
27 3 1.970432485 4.8201474211 3.8820522721
9 1 3.5550785475 3.2147699331 1.0923284297
18 3 4.07769917 3.5068487932 4.4936474949
21 3 3.9797446875 4.7561057677 2.2833022774
13 2 3.5251310625 4.7791948592 3.7830459433
20 3 4.0864313525 6.0669212991 4.4699123012
10 1 1.62168532 3.1966840958 9.7467256518
4 1 1.003670855 4.3120885791 5.6261856355
29 3 0.6624045598 4.7160303195 9.1436118332
6 1 3.5776041775 3.1990683626 6.4178541254
19 3 3.636448885 3.4489592894 9.733074731
26 3 3.8983843525 4.7399224024 7.5275805795
14 2 4.210432345 4.7226766176 9.0353279734
24 3 3.6419602625 5.9895376346 9.7518208633
54 3 1.5449961525 6.5663819561 1.1390133052
48 2 1.01329326 7.851736483 1.836399152
60 3 1.53742426 7.9037085578 3.3067922765
34 1 1.040199985 6.4477245332 4.4231000454
63 3 1.51941976 9.1303211745 1.1007249137
39 1 3.5442758475 6.268558619 1.0888467018
35 1 3.55700903 7.8406799089 3.6293934709
64 3 4.45299297 7.8411617038 1.8476935375
57 3 1.533563295 6.5665672618 6.2940511005
43 1 1.634988645 6.2110273729 9.7473200932
62 3 1.55506867 9.1001781124 6.3996068992
47 2 1.04994242 7.796404198 7.1058244459
49 3 1.60380085 7.7777995047 8.5611336213
44 1 3.521740215 6.2401450768 6.3950424388
37 1 3.6221953225 7.7856688205 8.8712833925
55 3 4.49372315 7.8232611722 7.1193373714
33 1 1.0486721025 9.3925658153 4.5214376277
40 1 1.0573742775 10.9376077642 1.9782795628
59 3 1.973273195 10.9279718673 3.7646713367
41 1 3.5455161575 9.4008551574 1.0940374486
50 3 4.0557236775 9.6478800226 4.4628214652
53 3 4.037509125 10.927032985 2.2631549619
45 2 3.5295921775 10.9321227152 3.7418278051
52 3 4.0596846675 12.204345244 4.4725023671
42 1 1.6086520625 9.3208401519 9.7739425734
36 1 1.579494775 10.8760244999 7.2998033945
61 3 0.6861464938 10.8608047242 9.0414422272
38 1 3.5630205325 9.3505261266 6.3540153711
51 3 3.6326579375 9.6061121155 9.7565976241
58 3 3.6253761175 10.8909848475 7.5676841401
46 2 4.14311552 10.8886129345 9.0340435555
56 3 3.6275166525 12.1536085406 9.7792076253
86 3 6.55503835 0.3865032377 1.1781615138
80 2 6.0287968225 1.6641070444 1.9107573951
92 3 6.5458060425 1.6674425472 3.3820740267
66 1 6.0606247775 0.1402405967 4.5387401168
95 3 6.5518075425 2.9448165748 1.1905280167
71 1 8.576923695 0.1052312831 1.1112125574
67 1 8.6685766025 1.7237878367 3.6819484547
96 3 9.4737578475 1.6584613971 1.8615355288
89 3 6.59180754 0.359069345 6.4316218116
75 1 6.5978590525 0.0868726758 9.842345788
94 3 6.560819795 2.9021839077 6.4497204275
79 2 6.0546032725 1.620411958 7.1771467921
81 3 6.575583485 1.616866442 8.6433682122
76 1 8.608731645 0.1019810209 6.3723793626
69 1 8.6380689775 1.6367188604 8.9118221692
87 3 9.5129676475 1.6376700964 7.1520422604
65 1 6.0681666625 3.2155235096 4.5526882584
72 1 6.0324977475 4.7544874312 1.9898074788
91 3 6.9621901125 4.7925986389 3.7602236417
73 1 8.579964455 3.217796593 1.1118494588
82 3 9.0139829325 3.544045826 4.5849579313
85 3 9.053642845 4.7285322781 2.3076637575
77 2 8.5217599075 4.7735245045 3.7759444922
84 3 9.0545530725 6.0776072617 4.4663138081
74 1 6.6209048125 3.1608583252 9.8567822207
68 1 6.5156585075 4.7300764923 7.3458725986
93 3 5.76572107 4.7214041851 9.1895430421
70 1 8.5305020925 3.1515312711 6.4298703326
83 3 8.5823950625 3.4424488821 9.7789210196
90 3 8.614373055 4.7208729754 7.5834686808
78 2 9.13168235 4.7196993726 9.0583625755
88 3 8.5823350475 6.0006312698 9.7752694514
118 3 6.55311787 6.5701127778 1.1809744951
112 2 6.011162415 7.8492780939 1.8869691263
124 3 6.5078765625 7.8628424719 3.3661621057
98 1 6.0484017225 6.3243109303 4.5467332299
127 3 6.53783405 9.1285175323 1.1637675412
103 1 8.5846756325 6.2452718681 1.1042491016
99 1 8.5308221725 7.8552449378 3.6175789492
1 3 9.4558333675 7.8365908296 1.8429273918
121 3 6.588426695 6.5531017136 6.4294351166
107 1 6.61409311 6.2858908798 9.8535234083
126 3 6.5770538525 9.0961384479 6.4231404074
111 2 6.0497220525 7.8215687134 7.1545686361
113 3 6.5474664575 7.8216057745 8.6291653101
108 1 8.571922445 6.2731912618 6.395106129
101 1 8.60178991 7.7914503587 8.8903479756
119 3 9.4915022825 7.8204074643 7.1467347484
97 1 6.0469213525 9.3830040407 4.5409586569
104 1 6.0581041475 10.9384107556 1.9982039628
123 3 6.97586353 10.9313567849 3.7740550179
105 1 8.555478335 9.3975073009 1.0935810025
114 3 9.0505720775 9.6421108381 4.4632142211
117 3 9.036478555 10.9184965686 2.2640466239
109 2 8.534193015 10.9299114004 3.7422842511
116 3 9.0669161625 12.2034310692 4.466260733
106 1 6.5896369975 9.353923398 9.824661158
100 1 6.5948783075 10.9061057935 7.297839615
125 3 5.7026753125 10.8965193114 9.0463782134
102 1 8.584765655 9.3527374414 6.3627727659
115 3 8.6023600525 9.6097564612 9.7589860045
122 3 8.6162435225 10.8968775691 7.565868971
110 2 9.1312322375 10.8819666363 9.0336401846
120 3 8.621134745 12.1529537938 9.7758214326
