ITEM: TIMESTEP
2308
ITEM: NUMBER OF ATOMS
127
ITEM: BOX BOUNDS pp pp pp
0.0000000000000000e+00 1.0002500000000000e+01
0.0000000000000000e+00 1.2353714000000000e+01
0.0000000000000000e+00 1.0615024000000000e+01
ITEM: ATOMS id type xs ys zs
22 3 0.150484 0.0270294 0.101741
16 2 0.103569 0.130889 0.17427
28 3 0.158917 0.125148 0.309264
2 1 0.107106 0.0147583 0.427684
31 3 0.156146 0.234803 0.106197
7 1 0.353347 0.00894588 0.104904
3 1 0.349787 0.140138 0.345088
32 3 0.446577 0.134509 0.176294
25 3 0.15517 0.0243253 0.607886
11 1 0.159604 0.00311496 0.923869
30 3 0.167698 0.229141 0.611484
15 2 0.107448 0.129582 0.676503
17 3 0.155037 0.126167 0.816453
12 1 0.355397 0.00791383 0.60006
5 1 0.357884 0.131708 0.837892
23 3 0.450011 0.129449 0.674906
8 1 0.107376 0.374178 0.199798
27 3 0.198208 0.390806 0.365963
9 1 0.355173 0.260457 0.102873
18 3 0.408984 0.283964 0.423032
21 3 0.398663 0.385023 0.214905
13 2 0.352863 0.386962 0.35637
20 3 0.409488 0.491351 0.421131
10 1 0.161798 0.258499 0.918432
4 1 0.113978 0.369641 0.576091
29 3 0.0674233 0.381812 0.857392
6 1 0.358959 0.257782 0.603045
19 3 0.36337 0.279246 0.91668
26 3 0.385687 0.383802 0.70868
14 2 0.419857 0.382316 0.850324
24 3 0.364039 0.484891 0.918487
54 3 0.154256 0.531381 0.107008
48 2 0.101037 0.635132 0.173241
60 3 0.152827 0.638735 0.312021
34 1 0.102174 0.518766 0.415958
63 3 0.151883 0.738833 0.104348
39 1 0.354025 0.507109 0.102843
35 1 0.355255 0.634142 0.341488
64 3 0.44516 0.63465 0.173701
57 3 0.153268 0.529842 0.595099
43 1 0.163212 0.50266 0.919155
62 3 0.156255 0.735167 0.602403
47 2 0.104803 0.63088 0.670124
49 3 0.159733 0.629562 0.807087
44 1 0.355935 0.506426 0.601392
37 1 0.362038 0.630392 0.83629
55 3 0.449225 0.633743 0.671292
33 1 0.104658 0.759838 0.425442
40 1 0.105677 0.885316 0.186533
59 3 0.197199 0.884295 0.354999
41 1 0.354383 0.760948 0.103114
50 3 0.405465 0.780689 0.420265
53 3 0.403417 0.88445 0.213181
45 2 0.3528 0.884751 0.35253
52 3 0.405913 0.987652 0.421406
42 1 0.16067 0.754656 0.921404
36 1 0.157968 0.880674 0.687034
61 3 0.0686877 0.878917 0.851237
38 1 0.356734 0.757172 0.59831
51 3 0.362953 0.77759 0.919048
58 3 0.362093 0.881463 0.712744
46 2 0.414065 0.881332 0.850848
56 3 0.3627 0.983755 0.921003
86 3 0.655021 0.0309719 0.110301
80 2 0.602391 0.134477 0.179172
92 3 0.653641 0.134401 0.317791
66 1 0.605801 0.0113251 0.427343
95 3 0.655057 0.23806 0.111243
71 1 0.857255 0.00817684 0.104397
67 1 0.865586 0.138917 0.345893
96 3 0.947133 0.133762 0.174703
89 3 0.65918 0.0291916 0.605745
75 1 0.659501 0.00686533 0.926873
94 3 0.655727 0.235147 0.607898
79 2 0.605484 0.131228 0.67613
81 3 0.657596 0.130796 0.814247
76 1 0.860757 0.00839724 0.600083
69 1 0.863696 0.132294 0.839139
87 3 0.951172 0.132539 0.673684
65 1 0.608556 0.260689 0.427843
72 1 0.602373 0.385009 0.186577
91 3 0.693693 0.389891 0.351475
73 1 0.857953 0.260358 0.104415
82 3 0.892138 0.283218 0.428399
85 3 0.904739 0.382839 0.216729
77 2 0.849739 0.385175 0.354689
84 3 0.904102 0.489876 0.421295
74 1 0.661815 0.25607 0.92778
68 1 0.652663 0.38244 0.69088
93 3 0.575589 0.382213 0.86307
70 1 0.854095 0.254512 0.60272
83 3 0.858887 0.279007 0.919944
90 3 0.863173 0.382195 0.712219
78 2 0.91378 0.382051 0.851667
88 3 0.858952 0.485523 0.919452
118 3 0.655189 0.53221 0.110035
112 2 0.60096 0.635485 0.17712
124 3 0.650859 0.636669 0.316382
98 1 0.604637 0.512329 0.427326
127 3 0.653312 0.739215 0.109141
103 1 0.858239 0.505193 0.103607
99 1 0.852853 0.634724 0.340535
1 3 0.945048 0.634031 0.173391
121 3 0.657756 0.530335 0.605576
107 1 0.661169 0.508508 0.92748
126 3 0.657592 0.736209 0.60484
111 2 0.604812 0.633281 0.674044
113 3 0.655028 0.633131 0.812738
108 1 0.854748 0.50827 0.600999
101 1 0.860008 0.630845 0.837386
119 3 0.948951 0.632579 0.672635
97 1 0.604565 0.759421 0.427258
104 1 0.60552 0.885471 0.188133
123 3 0.697385 0.884709 0.355467
105 1 0.855229 0.760553 0.103001
114 3 0.90472 0.780069 0.420311
117 3 0.903362 0.883571 0.213195
109 2 0.853187 0.884424 0.352477
116 3 0.906564 0.987369 0.420785
106 1 0.658892 0.757299 0.925383
100 1 0.659441 0.88299 0.687212
125 3 0.569979 0.881833 0.851727
102 1 0.858024 0.757123 0.599013
115 3 0.860227 0.7777 0.919078
122 3 0.86151 0.881864 0.712406
110 2 0.912977 0.880713 0.850705
120 3 0.861894 0.983532 0.920605
