ITEM: TIMESTEP
2308
ITEM: NUMBER OF ATOMS
127
ITEM: BOX BOUNDS pp pp pp
0.0000000000000000e+00 1.0002500000000000e+01
0.0000000000000000e+00 1.2353714000000000e+01
0.0000000000000000e+00 1.0615024000000000e+01
ITEM: ATOMS id type xs ys zs
22 3 0.151298 0.0281671 0.104591
16 2 0.103333 0.132273 0.175896
28 3 0.156723 0.1284 0.31213
2 1 0.107133 0.0136275 0.427921
31 3 0.156342 0.235441 0.106896
7 1 0.354021 0.00908987 0.105448
3 1 0.349698 0.139044 0.345572
32 3 0.446837 0.134486 0.177846
25 3 0.153517 0.0219996 0.608775
11 1 0.159732 0.00418951 0.925261
30 3 0.167974 0.225488 0.606757
15 2 0.107269 0.128224 0.676051
17 3 0.155943 0.12683 0.815516
12 1 0.354994 0.00794263 0.600319
5 1 0.358964 0.132 0.838027
23 3 0.449841 0.130133 0.674341
8 1 0.107753 0.378641 0.191814
27 3 0.197102 0.38948 0.360516
9 1 0.355818 0.260171 0.102782
18 3 0.406328 0.283574 0.422805
21 3 0.400092 0.384901 0.21416
13 2 0.35293 0.386627 0.35475
20 3 0.407792 0.4905 0.420556
4 1 0.0937998 0.318071 0.491154
10 1 0.162266 0.25911 0.918259
24 3 0.363837 0.485025 0.918613
29 3 0.0653969 0.382036 0.863439
6 1 0.356549 0.260181 0.605156
19 3 0.363432 0.27931 0.91703
26 3 0.392098 0.383699 0.709463
14 2 0.421446 0.382448 0.8518
54 3 0.154586 0.53176 0.107292
48 2 0.101439 0.635595 0.173674
60 3 0.153487 0.639081 0.312242
34 1 0.105421 0.520284 0.420269
63 3 0.15225 0.739208 0.104638
39 1 0.354847 0.50775 0.102262
35 1 0.355275 0.634709 0.342492
64 3 0.445201 0.634811 0.174584
57 3 0.15758 0.537363 0.592412
43 1 0.16334 0.503681 0.917552
62 3 0.15393 0.740969 0.604793
47 2 0.105807 0.634023 0.670034
49 3 0.160436 0.631625 0.807567
44 1 0.35042 0.504549 0.602743
37 1 0.362108 0.63058 0.835472
55 3 0.44957 0.633286 0.670422
33 1 0.105042 0.760351 0.426745
40 1 0.105574 0.885221 0.18654
59 3 0.197211 0.88481 0.354252
41 1 0.354605 0.760932 0.103448
50 3 0.405196 0.781162 0.420751
53 3 0.403956 0.884572 0.213406
45 2 0.3528 0.885 0.352556
52 3 0.405536 0.988137 0.421355
42 1 0.160982 0.755193 0.921686
36 1 0.158088 0.881153 0.689561
61 3 0.0684953 0.879954 0.853161
38 1 0.355534 0.757117 0.599115
51 3 0.363473 0.777982 0.919666
58 3 0.363098 0.882081 0.713425
46 2 0.414523 0.881761 0.851597
56 3 0.362711 0.984172 0.921735
86 3 0.655349 0.0313166 0.11149
80 2 0.602676 0.134679 0.180464
92 3 0.654351 0.135019 0.319145
66 1 0.605702 0.0111913 0.427949
95 3 0.655018 0.238307 0.112747
71 1 0.857422 0.00871992 0.104894
67 1 0.86472 0.138479 0.346336
96 3 0.946903 0.134587 0.175697
89 3 0.65889 0.0291082 0.606051
75 1 0.659736 0.00737696 0.927508
94 3 0.656369 0.234949 0.607321
79 2 0.605293 0.13139 0.676038
81 3 0.657194 0.131171 0.814251
76 1 0.860423 0.00820392 0.60052
69 1 0.863209 0.132816 0.839819
87 3 0.950959 0.132746 0.673792
65 1 0.605227 0.259845 0.429483
72 1 0.603827 0.384823 0.187404
91 3 0.69669 0.386556 0.35555
73 1 0.857347 0.260484 0.105042
82 3 0.904481 0.287008 0.430836
85 3 0.904795 0.383049 0.216991
77 2 0.852294 0.386934 0.355347
84 3 0.905115 0.492183 0.420398
74 1 0.661928 0.255819 0.929139
68 1 0.650534 0.383405 0.692878
93 3 0.576731 0.382333 0.867613
70 1 0.85308 0.256583 0.607285
83 3 0.857722 0.278529 0.922485
90 3 0.858998 0.382369 0.716521
78 2 0.912105 0.382241 0.854774
88 3 0.857533 0.486046 0.922339
118 3 0.655131 0.531779 0.112024
112 2 0.600966 0.635369 0.178387
124 3 0.650577 0.636366 0.317741
98 1 0.604686 0.511677 0.428977
127 3 0.653767 0.738824 0.110146
103 1 0.857862 0.506286 0.10437
99 1 0.853335 0.636287 0.341284
1 3 0.945477 0.634562 0.173885
121 3 0.659469 0.530715 0.605807
107 1 0.661276 0.509253 0.928858
126 3 0.657833 0.736599 0.605441
111 2 0.605117 0.633228 0.674065
113 3 0.654566 0.633269 0.813148
108 1 0.859759 0.507091 0.603312
101 1 0.860152 0.630806 0.837721
119 3 0.949521 0.633653 0.67373
97 1 0.604481 0.759515 0.428318
104 1 0.605759 0.885279 0.188381
123 3 0.697305 0.884941 0.355678
105 1 0.855396 0.760729 0.103289
114 3 0.904888 0.780785 0.420589
117 3 0.903323 0.884091 0.213392
109 2 0.853085 0.884857 0.352642
116 3 0.90619 0.988127 0.420731
106 1 0.658813 0.75719 0.925855
100 1 0.659262 0.882825 0.687962
125 3 0.570426 0.88243 0.85299
102 1 0.858684 0.757356 0.59984
115 3 0.859885 0.778295 0.919838
122 3 0.861548 0.882501 0.713352
110 2 0.91281 0.881331 0.851671
120 3 0.861656 0.984277 0.921412
