ITEM: TIMESTEP
2308
ITEM: NUMBER OF ATOMS
127
ITEM: BOX BOUNDS pp pp pp
0.0000000000000000e+00 1.0002500000000000e+01
0.0000000000000000e+00 1.2353714000000000e+01
0.0000000000000000e+00 1.0615024000000000e+01
ITEM: ATOMS id type xs ys zs
22 3 0.150515 0.0265753 0.101104
16 2 0.103469 0.130408 0.173621
28 3 0.159262 0.124457 0.308362
2 1 0.106885 0.0148008 0.427312
31 3 0.155604 0.234491 0.10529
7 1 0.353247 0.00863783 0.10459
3 1 0.350211 0.140041 0.343765
32 3 0.446531 0.134317 0.174748
25 3 0.156284 0.0267447 0.607093
11 1 0.159714 0.00298967 0.923675
30 3 0.164712 0.232846 0.615282
15 2 0.106807 0.130812 0.676989
17 3 0.154028 0.126302 0.81725
12 1 0.356048 0.00846122 0.59986
5 1 0.357545 0.131924 0.837321
23 3 0.449802 0.130931 0.674204
8 1 0.105249 0.374262 0.197383
27 3 0.201729 0.390945 0.352888
9 1 0.355725 0.260735 0.102912
18 3 0.409528 0.283746 0.420529
21 3 0.406622 0.384811 0.2118
13 2 0.355263 0.386651 0.351768
20 3 0.409848 0.490743 0.419452
10 1 0.160776 0.257247 0.920373
4 1 0.130083 0.378961 0.660366
29 3 0.0692806 0.382382 0.847356
6 1 0.356303 0.25814 0.5985
19 3 0.362427 0.279409 0.917032
26 3 0.374587 0.384073 0.709511
14 2 0.416903 0.382565 0.8497
24 3 0.363111 0.485266 0.918771
54 3 0.15342 0.530928 0.106154
48 2 0.100723 0.634017 0.174552
60 3 0.151126 0.635401 0.313709
34 1 0.102973 0.508684 0.421328
63 3 0.152625 0.738092 0.106624
39 1 0.354266 0.506707 0.103284
35 1 0.354259 0.633166 0.340835
64 3 0.445401 0.634454 0.173125
57 3 0.155143 0.530039 0.599983
43 1 0.161944 0.504549 0.921478
62 3 0.156498 0.735759 0.6031
47 2 0.104962 0.632237 0.671735
49 3 0.158169 0.631215 0.809387
44 1 0.357252 0.506989 0.598116
37 1 0.361324 0.63102 0.836587
55 3 0.449175 0.633465 0.671691
33 1 0.104509 0.758357 0.425221
40 1 0.105672 0.884893 0.187004
59 3 0.197021 0.883734 0.355403
41 1 0.354456 0.760746 0.103421
50 3 0.405406 0.780232 0.420076
53 3 0.403144 0.884343 0.213186
45 2 0.352635 0.884387 0.352569
52 3 0.405803 0.987322 0.421359
42 1 0.160262 0.755653 0.923295
36 1 0.158047 0.881897 0.686598
61 3 0.0685392 0.87928 0.85091
38 1 0.35705 0.75735 0.598231
51 3 0.362619 0.778084 0.919127
58 3 0.361953 0.881779 0.712525
46 2 0.413995 0.881605 0.850638
56 3 0.362877 0.984201 0.920556
86 3 0.654736 0.0302459 0.109412
80 2 0.602296 0.134006 0.177821
92 3 0.653126 0.133835 0.316481
66 1 0.605568 0.0113254 0.426963
95 3 0.655786 0.237164 0.109368
71 1 0.856911 0.00762292 0.104057
67 1 0.864082 0.137772 0.344274
96 3 0.94709 0.133138 0.173833
89 3 0.658503 0.0295894 0.605519
75 1 0.659172 0.00699204 0.926213
94 3 0.656322 0.235687 0.607243
79 2 0.605396 0.132094 0.675475
81 3 0.657415 0.131465 0.813752
76 1 0.860038 0.00861549 0.599709
69 1 0.863216 0.131705 0.838568
87 3 0.950481 0.132245 0.673874
65 1 0.609675 0.260737 0.426251
72 1 0.604482 0.385005 0.184981
91 3 0.692046 0.390588 0.349415
73 1 0.857712 0.259676 0.104529
82 3 0.886859 0.280507 0.423768
85 3 0.903433 0.382877 0.214644
77 2 0.848144 0.384374 0.352722
84 3 0.902772 0.488422 0.419995
74 1 0.661297 0.256604 0.926332
68 1 0.65465 0.382252 0.688136
93 3 0.572989 0.382455 0.857846
70 1 0.857955 0.255173 0.598845
83 3 0.862273 0.279547 0.919349
90 3 0.862003 0.382562 0.711061
78 2 0.91377 0.382347 0.849544
88 3 0.862092 0.48543 0.918931
118 3 0.655858 0.532847 0.10815
112 2 0.601209 0.635562 0.176259
124 3 0.651406 0.636584 0.315378
98 1 0.60467 0.51236 0.425857
127 3 0.653018 0.73962 0.108579
103 1 0.857811 0.505716 0.103752
99 1 0.854025 0.6336 0.340353
1 3 0.944715 0.633881 0.172997
121 3 0.657274 0.530131 0.604976
107 1 0.660672 0.508253 0.926163
126 3 0.657331 0.736082 0.604626
111 2 0.60483 0.633088 0.673798
113 3 0.65564 0.632821 0.812337
108 1 0.85536 0.508352 0.598249
101 1 0.860184 0.631701 0.837105
119 3 0.94907 0.632753 0.67244
97 1 0.604669 0.758986 0.426664
104 1 0.605369 0.885326 0.187998
123 3 0.697298 0.884568 0.355432
105 1 0.855134 0.760406 0.103172
114 3 0.90464 0.779838 0.420267
117 3 0.903276 0.883421 0.213142
109 2 0.853124 0.884152 0.352441
116 3 0.906466 0.987106 0.420779
106 1 0.658947 0.757443 0.925094
100 1 0.659158 0.883202 0.686759
125 3 0.569887 0.881791 0.8513
102 1 0.857732 0.757254 0.598644
115 3 0.860371 0.777856 0.918957
122 3 0.861285 0.881914 0.712154
110 2 0.912806 0.880918 0.850447
120 3 0.861524 0.983688 0.920238
