ITEM: TIMESTEP
2308
ITEM: NUMBER OF ATOMS
127
ITEM: BOX BOUNDS pp pp pp
0.0000000000000000e+00 1.0002500000000000e+01
0.0000000000000000e+00 1.2353714000000000e+01
0.0000000000000000e+00 1.0615024000000000e+01
ITEM: ATOMS id type xs ys zs
22 3 0.150469 0.0268532 0.101388
16 2 0.103547 0.130741 0.173868
28 3 0.159084 0.124869 0.308745
2 1 0.107029 0.0147818 0.427425
31 3 0.155937 0.234696 0.10558
7 1 0.353317 0.00886926 0.10484
3 1 0.3499 0.140324 0.344607
32 3 0.446635 0.134477 0.175662
25 3 0.155529 0.024998 0.607533
11 1 0.159696 0.00301162 0.923807
30 3 0.166568 0.230269 0.612692
15 2 0.10723 0.129777 0.676612
17 3 0.154692 0.126095 0.816673
12 1 0.355673 0.00801907 0.599967
5 1 0.357826 0.131762 0.837683
23 3 0.449857 0.129912 0.674652
8 1 0.106484 0.374073 0.198972
27 3 0.200063 0.391168 0.358691
9 1 0.355547 0.260689 0.102889
18 3 0.409246 0.283976 0.421881
21 3 0.403016 0.384958 0.213363
13 2 0.353983 0.386907 0.354062
20 3 0.409713 0.491111 0.420445
10 1 0.161721 0.25808 0.918886
4 1 0.113044 0.375009 0.620317
29 3 0.0687564 0.38192 0.850997
6 1 0.357881 0.25811 0.60093
19 3 0.363257 0.279292 0.916696
26 3 0.382498 0.383835 0.708789
14 2 0.419168 0.382369 0.850033
24 3 0.363891 0.484982 0.918427
54 3 0.15391 0.531288 0.106257
48 2 0.100928 0.634654 0.173679
60 3 0.152076 0.637236 0.312644
34 1 0.102788 0.513909 0.417917
63 3 0.152149 0.7386 0.105273
39 1 0.354196 0.50685 0.103008
35 1 0.354855 0.633623 0.341197
64 3 0.445346 0.634552 0.17342
57 3 0.154039 0.530178 0.597136
43 1 0.162967 0.503229 0.919724
62 3 0.156319 0.73555 0.602632
47 2 0.104837 0.631745 0.67086
49 3 0.15913 0.630361 0.808011
44 1 0.356673 0.506455 0.599925
37 1 0.361846 0.630612 0.836465
55 3 0.449134 0.633688 0.671478
33 1 0.104597 0.759221 0.425192
40 1 0.10568 0.885164 0.186682
59 3 0.197134 0.884075 0.355106
41 1 0.354402 0.76085 0.103281
50 3 0.405423 0.780517 0.420195
53 3 0.403352 0.884423 0.21318
45 2 0.35274 0.884619 0.352532
52 3 0.405852 0.987524 0.421404
42 1 0.160578 0.755054 0.922241
36 1 0.158036 0.881099 0.686933
61 3 0.068629 0.87902 0.851139
38 1 0.356906 0.7573 0.598236
51 3 0.362876 0.777746 0.919106
58 3 0.362056 0.881546 0.712708
46 2 0.414068 0.881413 0.850808
56 3 0.36279 0.983896 0.920867
86 3 0.654951 0.0306724 0.109998
80 2 0.602425 0.1343 0.17868
92 3 0.653456 0.134169 0.317319
66 1 0.605693 0.0113466 0.427193
95 3 0.655583 0.237651 0.110493
71 1 0.857135 0.0079794 0.104321
67 1 0.865101 0.138576 0.345214
96 3 0.947132 0.133583 0.174241
89 3 0.658973 0.0293519 0.605704
75 1 0.659359 0.00688172 0.926703
94 3 0.655763 0.235365 0.60777
79 2 0.605343 0.131503 0.675947
81 3 0.657507 0.131035 0.81411
76 1 0.860506 0.00838845 0.599902
69 1 0.863578 0.131934 0.838897
87 3 0.950918 0.132401 0.673746
65 1 0.60893 0.260823 0.427128
72 1 0.603281 0.385028 0.186028
91 3 0.692986 0.390295 0.350673
73 1 0.857924 0.260181 0.104469
82 3 0.889429 0.281902 0.42654
85 3 0.904263 0.382869 0.216033
77 2 0.849091 0.384805 0.354071
84 3 0.903466 0.489279 0.420956
74 1 0.661752 0.256186 0.927326
68 1 0.652873 0.382345 0.689664
93 3 0.575065 0.382288 0.861384
70 1 0.854567 0.254085 0.600611
83 3 0.860619 0.279347 0.919189
90 3 0.863954 0.382262 0.710615
78 2 0.914246 0.382111 0.85014
88 3 0.860663 0.485306 0.918663
118 3 0.655718 0.532555 0.109252
112 2 0.601147 0.635534 0.176799
124 3 0.65111 0.636669 0.316017
98 1 0.604563 0.512312 0.426684
127 3 0.653242 0.739425 0.10896
103 1 0.858192 0.50533 0.103654
99 1 0.85343 0.634195 0.340404
1 3 0.944908 0.63394 0.173113
121 3 0.657404 0.53023 0.605453
107 1 0.661123 0.508455 0.92708
126 3 0.657514 0.736136 0.604806
111 2 0.604722 0.63324 0.67402
113 3 0.655243 0.632994 0.812635
108 1 0.854082 0.50887 0.599419
101 1 0.86009 0.631281 0.837286
119 3 0.948983 0.632688 0.672568
97 1 0.604584 0.759262 0.427016
104 1 0.60548 0.885428 0.188114
123 3 0.697355 0.884669 0.355491
105 1 0.855225 0.760504 0.103108
114 3 0.904694 0.779997 0.420308
117 3 0.903324 0.883532 0.213183
109 2 0.853167 0.884335 0.352472
116 3 0.906541 0.987278 0.420791
106 1 0.658883 0.757368 0.925349
100 1 0.659349 0.883073 0.687088
125 3 0.569974 0.881807 0.851588
102 1 0.857877 0.757266 0.598819
115 3 0.860262 0.777744 0.919031
122 3 0.861442 0.881876 0.712332
110 2 0.912914 0.880782 0.850636
120 3 0.861763 0.983589 0.92048
