ITEM: TIMESTEP
2308
ITEM: NUMBER OF ATOMS
127
ITEM: BOX BOUNDS pp pp pp
0.0000000000000000e+00 1.0002500000000000e+01
0.0000000000000000e+00 1.2353714000000000e+01
0.0000000000000000e+00 1.0615024000000000e+01
ITEM: ATOMS id type xs ys zs
22 3 0.152733 0.0284484 0.108276
16 2 0.101223 0.133041 0.17522
28 3 0.151579 0.133189 0.314211
2 1 0.105002 0.00905965 0.427053
31 3 0.155002 0.235143 0.105458
7 1 0.354506 0.00730535 0.104337
3 1 0.352962 0.135057 0.343261
32 3 0.444756 0.133032 0.175523
25 3 0.151523 0.0198161 0.606969
11 1 0.160219 0.00917853 0.924924
30 3 0.163429 0.221985 0.592484
15 2 0.106669 0.128147 0.670813
17 3 0.159878 0.130823 0.808959
12 1 0.354233 0.00874577 0.599569
5 1 0.361775 0.134212 0.83474
23 3 0.450223 0.13283 0.669665
8 1 0.106101 0.383534 0.181303
27 3 0.197651 0.383534 0.349434
9 1 0.356138 0.259693 0.100641
18 3 0.405421 0.280238 0.418397
21 3 0.405036 0.383534 0.210291
13 2 0.353402 0.383534 0.349467
20 3 0.405421 0.48683 0.418397
4 1 0.106373 0.259076 0.426313
10 1 0.163075 0.260685 0.915796
24 3 0.363446 0.486446 0.916374
29 3 0.0643677 0.383534 0.865841
6 1 0.351033 0.262319 0.601481
19 3 0.363446 0.280621 0.916374
26 3 0.391279 0.383534 0.708124
14 2 0.421197 0.383534 0.850321
54 3 0.155002 0.531924 0.105458
48 2 0.101223 0.634027 0.17522
60 3 0.151579 0.633878 0.314211
34 1 0.106373 0.507992 0.426313
63 3 0.152733 0.738619 0.108276
39 1 0.356138 0.507375 0.100641
35 1 0.352962 0.632011 0.343261
64 3 0.444756 0.634036 0.175523
57 3 0.163429 0.545083 0.592484
43 1 0.163075 0.506382 0.915796
62 3 0.151523 0.747251 0.606969
47 2 0.106669 0.63892 0.670813
49 3 0.159878 0.636244 0.808959
44 1 0.351033 0.504749 0.601481
37 1 0.361775 0.632855 0.83474
55 3 0.450223 0.634237 0.669665
33 1 0.105002 0.758008 0.427053
40 1 0.103903 0.883534 0.186034
59 3 0.196127 0.883534 0.352278
41 1 0.354506 0.759762 0.104337
50 3 0.403634 0.780007 0.420563
53 3 0.403995 0.883534 0.213105
45 2 0.351737 0.883534 0.351752
52 3 0.403634 0.987061 0.420563
42 1 0.160219 0.757889 0.924924
36 1 0.158145 0.883534 0.693252
61 3 0.0682182 0.883534 0.856456
38 1 0.354233 0.758322 0.599569
51 3 0.362746 0.780387 0.920968
58 3 0.363778 0.883534 0.713772
46 2 0.414528 0.883534 0.852085
56 3 0.362746 0.986681 0.920968
86 3 0.653374 0.0293884 0.110639
80 2 0.600527 0.132837 0.178956
92 3 0.650664 0.13248 0.318128
66 1 0.603867 0.00917942 0.428366
95 3 0.654121 0.236143 0.111728
71 1 0.85482 0.00762987 0.103987
67 1 0.855014 0.13399 0.342652
96 3 0.945239 0.133507 0.174015
89 3 0.658535 0.0293511 0.605314
75 1 0.658867 0.00900049 0.926333
94 3 0.66027 0.235415 0.60517
79 2 0.605827 0.13295 0.673525
81 3 0.654964 0.13259 0.812776
76 1 0.859436 0.00845345 0.599977
69 1 0.860387 0.134845 0.837451
87 3 0.950385 0.132342 0.673278
65 1 0.604836 0.258202 0.428448
72 1 0.605697 0.383534 0.185901
91 3 0.697397 0.383534 0.354172
73 1 0.855697 0.260002 0.104028
82 3 0.905335 0.279874 0.420528
85 3 0.904181 0.383534 0.213147
77 2 0.853205 0.383534 0.352299
84 3 0.905335 0.487193 0.420528
74 1 0.660577 0.256646 0.928176
68 1 0.652882 0.383534 0.692064
93 3 0.576411 0.383534 0.866321
70 1 0.863091 0.260465 0.602811
83 3 0.856381 0.279583 0.922832
90 3 0.858295 0.383534 0.717628
78 2 0.911036 0.383534 0.855767
88 3 0.856381 0.487484 0.922832
118 3 0.654121 0.530925 0.111728
112 2 0.600527 0.63423 0.178956
124 3 0.650664 0.634587 0.318128
98 1 0.604836 0.508866 0.428448
127 3 0.653374 0.737679 0.110639
103 1 0.855697 0.507065 0.104028
99 1 0.855014 0.633078 0.342652
1 3 0.945239 0.63356 0.174015
121 3 0.66027 0.531652 0.60517
107 1 0.660577 0.510422 0.928176
126 3 0.658535 0.737716 0.605314
111 2 0.605827 0.634118 0.673525
113 3 0.654964 0.634478 0.812776
108 1 0.863091 0.506602 0.602811
101 1 0.860387 0.632223 0.837451
119 3 0.950385 0.634726 0.673278
97 1 0.603867 0.757888 0.428366
104 1 0.605178 0.883534 0.18795
123 3 0.696124 0.883534 0.355314
105 1 0.85482 0.759438 0.103987
114 3 0.904578 0.77987 0.419782
117 3 0.901889 0.883534 0.212663
109 2 0.851855 0.883534 0.352006
116 3 0.904578 0.987197 0.419782
106 1 0.658867 0.758067 0.926333
100 1 0.659202 0.883534 0.688568
125 3 0.570385 0.883534 0.853941
102 1 0.859436 0.758614 0.599977
115 3 0.859989 0.780355 0.92111
122 3 0.862187 0.883534 0.714198
110 2 0.912471 0.883534 0.852803
120 3 0.859989 0.986713 0.92111
