ITEM: TIMESTEP
2308
ITEM: NUMBER OF ATOMS
127
ITEM: BOX BOUNDS pp pp pp
0.0000000000000000e+00 1.0002500000000000e+01
0.0000000000000000e+00 1.2353714000000000e+01
0.0000000000000000e+00 1.0615024000000000e+01
ITEM: ATOMS id type xs ys zs
22 3 0.150626 0.0274669 0.102543
16 2 0.103605 0.131375 0.174877
28 3 0.158353 0.126086 0.310201
2 1 0.107255 0.01442 0.427769
31 3 0.156385 0.235026 0.106539
7 1 0.353605 0.00910221 0.105129
3 1 0.349533 0.139695 0.345543
32 3 0.446893 0.134545 0.177345
25 3 0.154382 0.0231967 0.608244
11 1 0.159622 0.00346599 0.924156
30 3 0.167758 0.227498 0.609084
15 2 0.107371 0.128998 0.676132
17 3 0.155553 0.126464 0.815847
12 1 0.355117 0.00788018 0.600146
5 1 0.358304 0.13179 0.837972
23 3 0.449868 0.129649 0.674686
8 1 0.107855 0.375863 0.196695
27 3 0.196994 0.390178 0.365713
9 1 0.355419 0.260227 0.102904
18 3 0.407668 0.28387 0.423329
21 3 0.397875 0.384994 0.215101
13 2 0.352425 0.386863 0.356386
20 3 0.408541 0.491101 0.421093
10 1 0.162128 0.258763 0.918201
4 1 0.100342 0.349052 0.530021
29 3 0.0662239 0.38175 0.861384
6 1 0.357671 0.258956 0.604601
19 3 0.363554 0.279184 0.916915
26 3 0.389741 0.383684 0.709144
14 2 0.420938 0.382288 0.851183
24 3 0.364105 0.484837 0.918681
54 3 0.154461 0.531531 0.107302
48 2 0.101304 0.635577 0.173
60 3 0.153704 0.639784 0.31152
34 1 0.103994 0.521926 0.416683
63 3 0.151904 0.739075 0.103695
39 1 0.354339 0.507423 0.102576
35 1 0.355612 0.634682 0.341911
64 3 0.445188 0.634721 0.174064
57 3 0.153318 0.531546 0.592938
43 1 0.163458 0.502766 0.918257
62 3 0.155468 0.736635 0.602882
47 2 0.104968 0.631098 0.669412
49 3 0.16034 0.629592 0.806511
44 1 0.352086 0.505123 0.602452
37 1 0.362129 0.630229 0.835729
55 3 0.44926 0.633272 0.670685
33 1 0.104841 0.760303 0.425947
40 1 0.105711 0.88537 0.186366
59 3 0.197278 0.88459 0.354655
41 1 0.354463 0.760974 0.103065
50 3 0.405471 0.78097 0.420425
53 3 0.40365 0.884514 0.213203
45 2 0.352871 0.884926 0.352503
52 3 0.405867 0.987909 0.421337
42 1 0.160825 0.754497 0.920765
36 1 0.15791 0.880385 0.687686
61 3 0.0685975 0.879153 0.851759
38 1 0.356213 0.7569 0.598587
51 3 0.363175 0.777589 0.919131
58 3 0.362447 0.881596 0.712922
46 2 0.414208 0.881404 0.851062
56 3 0.362661 0.983802 0.921261
86 3 0.65534 0.0312864 0.11099
80 2 0.602729 0.134705 0.180005
92 3 0.654417 0.134975 0.318612
66 1 0.605911 0.0113521 0.427577
95 3 0.655017 0.238375 0.112155
71 1 0.857478 0.00851819 0.104683
67 1 0.866641 0.139536 0.346862
96 3 0.947139 0.134248 0.175368
89 3 0.659016 0.0290657 0.605898
75 1 0.659621 0.00703211 0.927209
94 3 0.655918 0.234924 0.607603
79 2 0.605309 0.131168 0.676131
81 3 0.657394 0.130881 0.814258
76 1 0.860658 0.00825509 0.600317
69 1 0.863591 0.132488 0.839548
87 3 0.951059 0.132565 0.673766
65 1 0.606665 0.260288 0.428891
72 1 0.603099 0.384863 0.187452
91 3 0.696045 0.387948 0.354236
73 1 0.857782 0.260472 0.104743
82 3 0.901173 0.286881 0.431931
85 3 0.905138 0.382762 0.217396
77 2 0.851963 0.386404 0.355717
84 3 0.905229 0.491966 0.420754
74 1 0.661925 0.255863 0.928569
68 1 0.651403 0.382887 0.692026
93 3 0.576428 0.382185 0.865711
70 1 0.852837 0.255108 0.605733
83 3 0.858025 0.278657 0.921234
90 3 0.861222 0.382142 0.714409
78 2 0.91294 0.382047 0.853353
88 3 0.858019 0.485735 0.92089
118 3 0.655148 0.531833 0.111255
112 2 0.600966 0.635378 0.177764
124 3 0.650625 0.636476 0.317113
98 1 0.604689 0.511936 0.42833
127 3 0.65362 0.738929 0.109634
103 1 0.858253 0.505538 0.104027
99 1 0.852869 0.635861 0.340798
1 3 0.945347 0.634351 0.173615
121 3 0.658678 0.530456 0.605692
107 1 0.661244 0.508826 0.928262
126 3 0.657541 0.736308 0.605099
111 2 0.604821 0.633135 0.674004
113 3 0.654583 0.633138 0.81292
108 1 0.856978 0.507798 0.602458
101 1 0.859964 0.630697 0.837525
119 3 0.948913 0.633041 0.673266
97 1 0.604541 0.759529 0.427786
104 1 0.605659 0.885435 0.188243
123 3 0.697412 0.884864 0.355539
105 1 0.855334 0.760703 0.103022
114 3 0.904831 0.780503 0.420462
117 3 0.903422 0.883823 0.213287
109 2 0.853206 0.884747 0.352546
116 3 0.906465 0.987835 0.420749
106 1 0.658799 0.757175 0.925543
100 1 0.659323 0.88282 0.687501
125 3 0.570125 0.882044 0.852224
102 1 0.858262 0.757079 0.599412
115 3 0.860021 0.777884 0.919356
122 3 0.861409 0.882073 0.712751
110 2 0.912895 0.880866 0.851024
120 3 0.861898 0.983749 0.920942
