ITEM: TIMESTEP
2308
ITEM: NUMBER OF ATOMS
127
ITEM: BOX BOUNDS pp pp pp
0.0000000000000000e+00 1.0002500000000000e+01
0.0000000000000000e+00 1.2353714000000000e+01
0.0000000000000000e+00 1.0615024000000000e+01
ITEM: ATOMS id type xs ys zs
22 3 0.152774 0.0294974 0.108841
16 2 0.102519 0.134026 0.17755
28 3 0.153262 0.133589 0.315785
2 1 0.106537 0.0123981 0.428367
31 3 0.156024 0.2363 0.107552
7 1 0.35473 0.00892852 0.10571
3 1 0.35097 0.138204 0.34535
32 3 0.446295 0.13441 0.177835
25 3 0.152928 0.0213569 0.609018
11 1 0.159679 0.00566478 0.926968
30 3 0.166834 0.224372 0.603515
15 2 0.107064 0.12813 0.675542
17 3 0.156695 0.127792 0.814758
12 1 0.354906 0.0082503 0.600605
5 1 0.359679 0.132409 0.837738
23 3 0.450012 0.130928 0.67373
8 1 0.107332 0.381853 0.187536
27 3 0.197555 0.388343 0.355829
9 1 0.356168 0.260435 0.102564
18 3 0.40539 0.283028 0.421977
21 3 0.402578 0.38483 0.213161
13 2 0.353422 0.386279 0.353084
20 3 0.407204 0.489811 0.42008
4 1 0.100209 0.284865 0.455843
10 1 0.162369 0.2597 0.918274
24 3 0.363574 0.485362 0.918494
29 3 0.0648713 0.3825 0.864705
6 1 0.354966 0.261295 0.605174
19 3 0.363233 0.279602 0.917184
26 3 0.393109 0.383786 0.709685
14 2 0.421624 0.382729 0.852158
54 3 0.154764 0.532229 0.10698
48 2 0.101469 0.635484 0.174676
60 3 0.152829 0.637557 0.313409
34 1 0.10537 0.515727 0.423796
63 3 0.152621 0.739432 0.106328
39 1 0.355378 0.508039 0.102086
35 1 0.354571 0.634345 0.34315
64 3 0.445135 0.634953 0.175191
57 3 0.160821 0.541491 0.592701
43 1 0.163176 0.504675 0.91712
62 3 0.152793 0.744187 0.606355
47 2 0.106395 0.636429 0.670813
49 3 0.160384 0.633537 0.808626
44 1 0.350334 0.504407 0.602749
37 1 0.36209 0.631112 0.835474
55 3 0.44989 0.633576 0.670435
33 1 0.10519 0.759967 0.427394
40 1 0.105195 0.884932 0.187
59 3 0.196981 0.885085 0.353937
41 1 0.354734 0.760845 0.104013
50 3 0.404726 0.781354 0.421177
53 3 0.404175 0.884609 0.213708
45 2 0.352605 0.885025 0.352652
52 3 0.404962 0.988411 0.421337
42 1 0.161003 0.755996 0.92311
36 1 0.158259 0.882221 0.691578
61 3 0.0685291 0.881098 0.854985
38 1 0.354991 0.757496 0.599714
51 3 0.363552 0.778517 0.920359
58 3 0.363542 0.882646 0.714011
46 2 0.414634 0.882238 0.852242
56 3 0.36248 0.98467 0.922294
86 3 0.654899 0.0311602 0.111783
80 2 0.602154 0.134513 0.180594
92 3 0.65333 0.13462 0.319436
66 1 0.605288 0.0109293 0.428509
95 3 0.654821 0.238016 0.11306
71 1 0.856852 0.00888408 0.105153
67 1 0.860757 0.13722 0.345521
96 3 0.946316 0.134907 0.175927
89 3 0.658745 0.0291827 0.606242
75 1 0.659777 0.00783321 0.927662
94 3 0.657502 0.2351 0.607139
79 2 0.60555 0.131867 0.67582
81 3 0.656849 0.131515 0.814284
76 1 0.860086 0.00835595 0.600814
69 1 0.862526 0.133375 0.83972
87 3 0.950749 0.132673 0.674124
65 1 0.604864 0.259703 0.429822
72 1 0.604609 0.384875 0.187175
91 3 0.696626 0.385876 0.355551
73 1 0.856727 0.260818 0.105414
82 3 0.904185 0.284936 0.427539
85 3 0.904631 0.383675 0.216246
77 2 0.852248 0.386557 0.354767
84 3 0.904418 0.491365 0.420571
74 1 0.661862 0.255915 0.929426
68 1 0.650499 0.383649 0.69336
93 3 0.576767 0.382596 0.868725
70 1 0.856453 0.25862 0.606865
83 3 0.857539 0.27867 0.923518
90 3 0.857502 0.382899 0.718229
78 2 0.911497 0.382626 0.855971
88 3 0.85727 0.486487 0.923627
118 3 0.654983 0.53194 0.112437
112 2 0.6009 0.63545 0.17894
124 3 0.650592 0.636384 0.318243
98 1 0.604901 0.511327 0.429212
127 3 0.65371 0.738876 0.110603
103 1 0.85725 0.507022 0.104877
99 1 0.853908 0.63587 0.342017
1 3 0.945504 0.634725 0.174226
121 3 0.659902 0.531029 0.605935
107 1 0.661304 0.509677 0.929263
126 3 0.658172 0.736989 0.605815
111 2 0.605447 0.633461 0.674205
113 3 0.654734 0.633536 0.813388
108 1 0.861685 0.506521 0.603657
101 1 0.860343 0.631039 0.837965
119 3 0.950069 0.634083 0.673989
97 1 0.604401 0.759403 0.428801
104 1 0.605793 0.885029 0.188556
123 3 0.697087 0.884951 0.355881
105 1 0.855315 0.760657 0.103747
114 3 0.904939 0.780964 0.4207
117 3 0.903062 0.884368 0.213504
109 2 0.852846 0.88485 0.352783
116 3 0.90583 0.988279 0.420761
106 1 0.658865 0.757366 0.92623
100 1 0.659264 0.88301 0.688551
125 3 0.570521 0.882909 0.853821
102 1 0.859072 0.757735 0.600261
115 3 0.859917 0.778831 0.920471
122 3 0.861926 0.882959 0.714083
110 2 0.912816 0.88197 0.852505
120 3 0.861356 0.984951 0.922005
