ITEM: TIMESTEP
2308
ITEM: NUMBER OF ATOMS
127
ITEM: BOX BOUNDS pp pp pp
0.0000000000000000e+00 1.0002500000000000e+01
0.0000000000000000e+00 1.2353714000000000e+01
0.0000000000000000e+00 1.0615024000000000e+01
ITEM: ATOMS id type xs ys zs
22 3 0.150581 0.0258948 0.102378
16 2 0.103299 0.12957 0.175133
28 3 0.159176 0.123348 0.309782
2 1 0.106639 0.0148415 0.429321
31 3 0.15549 0.233844 0.107303
7 1 0.352988 0.0081915 0.105046
3 1 0.350673 0.13907 0.343581
32 3 0.446086 0.133843 0.174513
25 3 0.158088 0.0303197 0.608292
11 1 0.159709 0.00377337 0.924809
30 3 0.163768 0.237023 0.620587
15 2 0.106858 0.133378 0.679291
17 3 0.153072 0.127561 0.819871
12 1 0.357104 0.0101967 0.600683
5 1 0.357079 0.13336 0.837754
23 3 0.450183 0.133691 0.674315
8 1 0.104135 0.374897 0.196486
27 3 0.203244 0.390283 0.350031
9 1 0.355592 0.260575 0.104218
18 3 0.410196 0.283182 0.420036
21 3 0.409418 0.384545 0.211388
13 2 0.356611 0.38613 0.350782
20 3 0.410365 0.490159 0.419385
10 1 0.15849 0.256833 0.924779
4 1 0.15886 0.382579 0.685507
29 3 0.0695138 0.383973 0.852707
6 1 0.355167 0.258676 0.596879
19 3 0.361216 0.280693 0.918929
26 3 0.364988 0.385638 0.712231
14 2 0.414042 0.383944 0.850975
24 3 0.362325 0.486812 0.920786
54 3 0.153202 0.530471 0.109147
48 2 0.100435 0.633469 0.177689
60 3 0.149822 0.633915 0.317099
34 1 0.10371 0.503845 0.42669
63 3 0.153288 0.737429 0.109934
39 1 0.354364 0.506866 0.105223
35 1 0.353492 0.632854 0.34174
64 3 0.445222 0.63467 0.174196
57 3 0.157906 0.530738 0.604435
43 1 0.159965 0.507524 0.926474
62 3 0.157306 0.736677 0.605662
47 2 0.105726 0.633146 0.674286
49 3 0.156899 0.632824 0.81276
44 1 0.358936 0.508761 0.597225
37 1 0.360426 0.632616 0.837756
55 3 0.449817 0.633759 0.672971
33 1 0.104388 0.757529 0.427545
40 1 0.105782 0.884505 0.189356
59 3 0.196948 0.883301 0.357798
41 1 0.354474 0.760796 0.104561
50 3 0.405697 0.779836 0.421035
53 3 0.402443 0.884238 0.214376
45 2 0.352546 0.884068 0.353959
52 3 0.406072 0.987056 0.422418
42 1 0.159356 0.757384 0.926053
36 1 0.158642 0.884 0.687325
61 3 0.0684745 0.880627 0.851443
38 1 0.357577 0.758055 0.599469
51 3 0.361905 0.779712 0.920117
58 3 0.362207 0.883055 0.712996
46 2 0.413971 0.882842 0.851215
56 3 0.363237 0.985738 0.920759
86 3 0.654123 0.0295668 0.109215
80 2 0.601822 0.133479 0.1773
92 3 0.652773 0.133345 0.315916
66 1 0.6055 0.011308 0.427339
95 3 0.655275 0.236502 0.108536
71 1 0.856508 0.00703404 0.104462
67 1 0.862444 0.136356 0.344182
96 3 0.946943 0.13224 0.174732
89 3 0.657847 0.0308302 0.605788
75 1 0.659004 0.00799803 0.925929
94 3 0.658011 0.23704 0.607131
79 2 0.605938 0.133944 0.675414
81 3 0.657561 0.132904 0.813826
76 1 0.85944 0.0100243 0.600609
69 1 0.862636 0.13292 0.839159
87 3 0.950589 0.133177 0.674985
65 1 0.611059 0.260428 0.425875
72 1 0.605831 0.38485 0.184182
91 3 0.691637 0.390661 0.348721
73 1 0.857234 0.258768 0.10525
82 3 0.885477 0.279046 0.421694
85 3 0.902594 0.382902 0.213743
77 2 0.847662 0.383698 0.35193
84 3 0.903009 0.486876 0.420356
74 1 0.660494 0.258127 0.925638
68 1 0.658697 0.382875 0.687676
93 3 0.570108 0.38358 0.854037
70 1 0.864587 0.258221 0.598691
83 3 0.862251 0.280492 0.921062
90 3 0.861693 0.38373 0.713796
78 2 0.913784 0.383544 0.85179
88 3 0.861642 0.486638 0.92076
118 3 0.655051 0.533069 0.107661
112 2 0.601047 0.63564 0.176466
124 3 0.652092 0.636392 0.315308
98 1 0.605357 0.512364 0.425665
127 3 0.652566 0.739795 0.108768
103 1 0.856657 0.506487 0.104747
99 1 0.854799 0.632881 0.341898
1 3 0.94447 0.633904 0.174628
121 3 0.657927 0.530684 0.605095
107 1 0.659966 0.508733 0.925551
126 3 0.65737 0.736678 0.604946
111 2 0.605584 0.633553 0.674235
113 3 0.65677 0.633492 0.812597
108 1 0.858502 0.507769 0.599106
101 1 0.860634 0.632527 0.837931
119 3 0.949811 0.633196 0.673128
97 1 0.604978 0.758599 0.426884
104 1 0.604959 0.885158 0.188596
123 3 0.697206 0.884413 0.356128
105 1 0.855037 0.760317 0.104242
114 3 0.904518 0.779609 0.421382
117 3 0.903333 0.883241 0.214241
109 2 0.85305 0.883872 0.353502
116 3 0.906239 0.986812 0.422035
106 1 0.659416 0.758265 0.925403
100 1 0.658777 0.884119 0.686816
125 3 0.569845 0.882445 0.851737
102 1 0.857839 0.757636 0.599703
115 3 0.860805 0.778861 0.919832
122 3 0.861048 0.88271 0.712723
110 2 0.912716 0.881975 0.850981
120 3 0.861121 0.984708 0.920556
