LAMMPS (12 Dec 2018)
Running on 8 partitions of processors
Step MaxReplicaForce MaxAtomForce GradV0 GradV1 GradVc EBF EBR RDT RD1 PE1 RD2 PE2 ... RDN PEN
0    20.524383    12.836986   0.28335175    4.8327042    20.642025    3.4300025    3.1833814    3.2506988            0   -796.68154   0.14285714   -796.24065   0.28571429   -794.90152   0.42857143   -793.30154   0.57142857   -793.25154   0.71428571   -794.80382   0.85714286   -796.07769            1   -796.43492 
1    20.524383    12.836986   0.28335175    4.8327042    20.642025    3.4300025    3.1833814    3.2506988            0   -796.68154   0.14285714   -796.24065   0.28571429   -794.90152   0.42857143   -793.30154   0.57142857   -793.25154   0.71428571   -794.80382   0.85714286   -796.07769            1   -796.43492 
2    17.981655    11.418383   0.28296234    4.5686464    18.093019    3.0427393    2.8183108    3.2509073            0   -796.68162   0.14284877   -796.24863   0.28571561   -795.00289   0.42859693   -793.66959   0.57145287   -793.63888   0.71433298   -794.92767   0.85720251   -796.10192            1   -796.45719 
3    13.484328    8.8605191   0.28210818    4.0383333     13.58626    2.4234818    2.2420965    3.2534882            0    -796.6818   0.14272724   -796.26546      0.28554   -795.19111   0.42867244    -794.2593   0.57145133   -794.25832   0.71459368   -795.15553   0.85742875   -796.15047            1   -796.50041 
4    8.9227401    6.0866108   0.28059383    3.2815439    8.8483869    1.8468947    1.7246852     3.261379            0   -796.68212   0.14232653   -796.29285    0.2849196   -795.43125   0.42882889   -794.83523   0.57131958   -794.85895   0.71530881   -795.44167   0.85798544   -796.22203            1   -796.55991 
5    5.7187983    3.9812461   0.27807217    2.4837536    5.6960946    1.4158069    1.3581064    3.2757402            0   -796.68267   0.14153106   -796.33115    0.2838279   -795.66914   0.42900065   -795.26686   0.57102009   -795.30481   0.71645657   -795.71943   0.85895993   -796.30954            1   -796.62497 
6    3.7190047     2.588695   0.27406291    1.9088144    3.7098418    1.1241445    1.1262419    3.2959209            0   -796.68354   0.14034013   -796.37615   0.28253158   -795.86143   0.42909216    -795.5594   0.57058739   -795.60478   0.71771783    -795.9401   0.86027456   -796.40101            1   -796.68564 
7    2.5531234    1.6762516   0.26803962    1.5125458     2.546758   0.93007161   0.98721023    3.3209732            0   -796.68485   0.13892222   -796.42034   0.28130488   -795.99974   0.42905753   -795.75477    0.5700885   -795.80488   0.71879222   -796.09946   0.86165269   -796.48756            1   -796.74198 
8    1.8426629     1.108063   0.25961187     1.209782    1.8406416    0.7953679   0.90220777    3.3496962            0   -796.68664   0.13757557   -796.45761   0.28033451   -796.09575   0.42887759   -795.89127   0.56959306    -795.9447   0.71947642   -796.21336   0.86271182   -796.56253            1   -796.79348 
9    1.3739315    0.7370584    0.2485714     0.978163    1.3770437   0.69785729   0.84780944    3.3818128            0   -796.68892   0.13649586   -796.48605    0.2795938   -796.16202   0.42852025   -795.99107   0.56912946   -796.04658   0.71975502   -796.29707   0.86324586   -796.62406            1   -796.83888 
10    1.2228668   0.50361378   0.23501858   0.80536961    1.0757213   0.62660482    0.8126013    3.4165706            0   -796.69165   0.13574498   -796.50656    0.2789683   -796.20547   0.42793485   -796.06504   0.56869928   -796.12146   0.71962001   -796.35916   0.86322031   -796.67352            1   -796.87765 
11    2.3682222    1.3105173   0.22223368   0.80670357    1.0705931   0.58387337   0.79292067    3.4481258            0   -796.69414   0.13527007   -796.51873   0.27822608   -796.20637   0.42723941   -796.11027   0.56829592   -796.16586   0.71934161   -796.37675   0.86292467   -796.70574            1   -796.90319 
12    1.7127642   0.90323434   0.22120438   0.72188978   0.94845467   0.57992706   0.79115748    3.4485569            0   -796.69433   0.13531422   -796.51963   0.27808232   -796.22423    0.4271448   -796.11441   0.56831183   -796.17069   0.71938483   -796.39542   0.86282045   -796.70831            1   -796.90556 
13     1.111135   0.46421625   0.21971886   0.66141106   0.86908493   0.57532942   0.78912362    3.4505808            0   -796.69461   0.13532141   -796.52083   0.27794912   -796.23653    0.4270261   -796.11928   0.56829795   -796.17592   0.71936524   -796.40901   0.86272298   -796.71162            1   -796.90841 
14   0.83663477   0.34377171   0.21763187   0.62965192   0.83131656   0.56970717   0.78660098    3.4544775            0   -796.69501   0.13528954    -796.5224    0.2778342   -796.24276   0.42687471    -796.1253   0.56825229   -796.18202   0.71926098   -796.41734   0.86262593    -796.7159            1    -796.9119 
15   0.80331013    0.3292093   0.21514916   0.60971381   0.80605048   0.56344253   0.78374743    3.4594005            0   -796.69548   0.13524244   -796.52419   0.27772473   -796.24669   0.42669806   -796.13204   0.56819084   -796.18878   0.71910608   -796.42391   0.86252008   -796.72073            1   -796.91578 
16   0.77771443   0.31425212   0.21238863   0.58991753   0.78013398   0.55680621   0.78070665    3.4648888            0     -796.696   0.13519367    -796.5261   0.27760414   -796.25066   0.42649912   -796.13919   0.56812114   -796.19596   0.71892618   -796.43076   0.86239982   -796.72586            1    -796.9199 
17   0.75093227   0.30619203   0.20935454   0.56909428   0.75302352   0.54987589   0.77751577    3.4709197            0   -796.69656   0.13514494   -796.52812   0.27747086    -796.2548    0.4262772   -796.14668   0.56804325    -796.2035   0.71872121   -796.43799   0.86226389   -796.73124            1    -796.9242 
18   0.72612221   0.29741418   0.20604826   0.54740155    0.7249822   0.54272566   0.77420396    3.4774897            0   -796.69717   0.13509722   -796.53022   0.27732504   -796.25909   0.42603174   -796.15444   0.56795686   -796.21133   0.71848982   -796.44553   0.86211185    -796.7368            1   -796.92865 
19   0.70065897   0.28790546   0.20247219   0.52504324   0.69627251   0.53542701   0.77079872    3.4845938            0   -796.69782   0.13505149   -796.53239     0.277167   -796.26348   0.42576233   -796.16239   0.56786156   -796.21938   0.71823092   -796.45333   0.86194351   -796.74249            1   -796.93319 
20   0.67446982   0.27767446   0.19862995   0.50221938   0.66713945    0.5280475   0.76732587    3.4922253            0   -796.69851   0.13500875   -796.53462   0.27699724   -796.26794   0.42546871   -796.17047   0.56775693   -796.22759    0.7179439    -796.4613   0.86175891   -796.74826            1   -796.93779 
21   0.64769797   0.26673193    0.1945265   0.47912294   0.63780357   0.52064982   0.76380939    3.5003755            0   -796.69924   0.13496997    -796.5369   0.27681652   -796.27244   0.42515084   -796.17859   0.56764245    -796.2359   0.71762861   -796.46939   0.86155838   -796.75404            1    -796.9424 
22   0.62047098   0.25510597   0.19016816   0.45593412   0.60845909   0.51329127   0.76027158    3.5090344            0   -796.70001   0.13493611   -796.53922   0.27662592   -796.27695   0.42480893   -796.18672   0.56751752   -796.24426   0.71728554   -796.47754    0.8613425    -796.7598            1   -796.94699 
23   0.59290285   0.24283548   0.18556283   0.43281813   0.57926828   0.50602337   0.75673318      3.51819            0   -796.70081   0.13490811   -796.54156   0.27642684   -796.28144    0.4244435   -796.19479   0.56738142   -796.25264   0.71691586   -796.48569   0.86111209   -796.76548            1   -796.95152 
24   0.56509375   0.22997165   0.18072012    0.4099203   0.55036919    0.4988919   0.75321362    3.5278291            0   -796.70164   0.13488692   -796.54392   0.27622111   -796.28589    0.4240554   -796.20274   0.56723331   -796.26098   0.71652143   -796.49378   0.86086817   -796.77105            1   -796.95596 
25   0.53713346   0.21657955   0.17565125   0.38736749    0.5218723    0.4919369   0.74973115    3.5379372            0   -796.70249   0.13487347   -796.54629   0.27601091   -796.29029   0.42364585   -796.21055    0.5670722   -796.26925   0.71610489   -796.50176   0.86061189   -796.77646            1   -796.96028 
26   0.50911519    0.2027387   0.17036895   0.36526767   0.49386614   0.48519298   0.74630311    3.5484983            0   -796.70336    0.1348687   -796.54867   0.27579889   -796.29462   0.42321652   -796.21817   0.56689695   -796.27741   0.71566956   -796.50957   0.86034445    -796.7817            1   -796.96447 
27   0.48349309   0.18853581    0.1648877   0.34370495   0.46642518   0.47868961   0.74294593    3.5594954            0   -796.70425    0.1348736   -796.55104   0.27558809   -796.29887   0.42276953   -796.22556   0.56670631   -796.28545   0.71521941   -796.51717   0.86006702   -796.78673            1   -796.96851 
28   0.45904735    0.1740944   0.15922361   0.32274509   0.43960943   0.47245136   0.73967504    3.5709098            0   -796.70516   0.13488917    -796.5534   0.27538199   -796.30303   0.42230757   -796.23271   0.56649897   -796.29332   0.71475898   -796.52452   0.85978061   -796.79155            1   -796.97238 
29     0.435033   0.15950708   0.15339457   0.30243339   0.41347893   0.46649825   0.73650466    3.5827214            0   -796.70607    0.1349165   -796.55575   0.27518447   -796.30708   0.42183392   -796.23957   0.56627365     -796.301   0.71429315   -796.53159   0.85948604   -796.79614            1   -796.97607 
30   0.41142701   0.14491057   0.14742022   0.28280496   0.38808889   0.46084568   0.73344736    3.5949082            0   -796.70698   0.13495677   -796.55808   0.27499979   -796.31102   0.42135258   -796.24614   0.56602924   -796.30847   0.71382705   -796.53833   0.85918389   -796.80049            1   -796.97959 
31   0.38821512   0.13507947   0.14132196   0.26387925   0.36349393   0.45550474   0.73051389    3.6074453            0    -796.7079   0.13501125   -796.56039   0.27483258   -796.31485    0.4208683   -796.25239   0.56576498    -796.3157   0.71336588   -796.54472   0.85887453   -796.80461            1   -796.98291 
32   0.36541107   0.12709864    0.1351232   0.24566934    0.3397571   0.45048262   0.72771291     3.620306            0   -796.70881   0.13508141   -796.56266   0.27468783   -796.31855   0.42038668   -796.25833   0.56548069   -796.32266   0.71291453   -796.55074   0.85855816   -796.80849            1   -796.98604 
33   0.34326366   0.11877642   0.12885468    0.2282503   0.31713656   0.44578602   0.72505279    3.6334492            0   -796.70971   0.13516848    -796.5649   0.27457057   -796.32211   0.41991437   -796.26392    0.5651771   -796.32934   0.71247806   -796.55636   0.85823534   -796.81214            1   -796.98898 
34   0.37573217   0.11053223   0.12265431   0.21298929    0.2996891   0.44147569   0.72257493    3.6467111            0   -796.71058   0.13527233   -796.56707   0.27448673   -796.32529   0.41946452   -796.26911   0.56485898   -796.33562   0.71206524   -796.56129   0.85791127   -796.81552            1   -796.99168 
35   0.83166915   0.31165138   0.11817408   0.21527112   0.33093792    0.4384446   0.72083375    3.6575152            0   -796.71126   0.13535262   -796.56859   0.27443397   -796.32553   0.41913001   -796.27282   0.56458693   -796.34015    0.7117725   -796.56219   0.85766705   -796.81783            1   -796.99365 
36   0.61999493    0.2244816   0.11761944   0.20655695   0.30453291     0.438167   0.72065325    3.6580119            0   -796.71131   0.13536271    -796.5688   0.27442531   -796.32699   0.41910885   -796.27314   0.56457532   -796.34055   0.71176518   -796.56405   0.85764779   -796.81812            1   -796.99379 
37   0.41804743   0.13140278   0.11699974    0.1998903   0.28507237    0.4378285   0.72044258     3.658874            0   -796.71137   0.13537466   -796.56902   0.27441853   -796.32811   0.41907865   -796.27354   0.56455396   -796.34105   0.71174592   -796.56549   0.85762196   -796.81843            1   -796.99398 
38    0.3012331   0.10179248   0.11628812   0.19601237   0.27569236   0.43740836   0.72019006    3.6602078            0   -796.71146   0.13538928   -796.56927   0.27441481   -796.32879   0.41903671   -796.27405   0.56452002   -796.34168   0.71171071   -796.56641   0.85758734   -796.81878            1   -796.99424 
39   0.29726626   0.10075721   0.11548046   0.19368421    0.2720424   0.43691756   0.71989856    3.6619003            0   -796.71157   0.13540657   -796.56955    0.2744135   -796.32926    0.4189856   -796.27465   0.56447653   -796.34242   0.71166366   -796.56706   0.85754536   -796.81918            1   -796.99455 
40   0.29424648  0.099561096    0.1145894   0.19149493   0.26918135   0.43637821   0.71957805    3.6638013            0   -796.71169   0.13542607   -796.56985   0.27441324   -796.32971   0.41892909   -796.27531   0.56442757   -796.34324   0.71161085   -796.56771   0.85749853   -796.81962            1   -796.99489 
41   0.29102397  0.098242953   0.11361619   0.18913846   0.26613321   0.43579531   0.71923079    3.6658852            0   -796.71182    0.1354479   -796.57018   0.27441391    -796.3302   0.41886807   -796.27602   0.56437387   -796.34413   0.71155351    -796.5684   0.85744728   -796.82009            1   -796.99525 
42   0.28754548  0.096813937   0.11256218   0.18660163   0.26285571   0.43517145   0.71885807    3.6681497            0   -796.71196    0.1354722   -796.57054   0.27441578   -796.33073   0.41880288   -796.27679    0.5643155   -796.34508   0.71149188   -796.56914   0.85739165    -796.8206            1   -796.99565 
43   0.28381821  0.095278002    0.1114291   0.18389157   0.25935872    0.4345093   0.71846123    3.6705931            0   -796.71211   0.13549908   -796.57092   0.27441915   -796.33129    0.4187339    -796.2776   0.56425255    -796.3461   0.71142614   -796.56993   0.85733171   -796.82114            1   -796.99606 
44   0.27985084   0.09363811   0.11021885   0.18101621    0.2556534   0.43381167    0.7180417    3.6732133            0   -796.71228    0.1355287   -796.57133   0.27442436   -796.33189   0.41866152   -796.27846    0.5641851   -796.34717   0.71135652   -796.57076   0.85726753   -796.82171            1   -796.99651 
45   0.27565261  0.091897533   0.10893347   0.17798385   0.25175191   0.43308144   0.71760094     3.676008            0   -796.71245    0.1355612   -796.57176   0.27443174   -796.33252   0.41858617   -796.27936   0.56411324    -796.3483   0.71128324   -796.57163    0.8571992   -796.82231            1   -796.99697 
46   0.27123328  0.090059918   0.10757515   0.17480316   0.24766683   0.43232162   0.71714047    3.6789747            0   -796.71263   0.13559674   -796.57222   0.27444169   -796.33318   0.41850834    -796.2803   0.56403711   -796.34948   0.71120654   -796.57253    0.8571268   -796.82293            1   -796.99745 
47   0.26660316  0.088129288   0.10614626    0.1714831   0.24341119   0.43153522   0.71666183    3.6821107            0   -796.71281   0.13563547   -796.57269   0.27445459   -796.33387   0.41842854   -796.28128   0.56395687   -796.35071   0.71112665   -796.57346   0.85705044   -796.82359            1   -796.99794 
48    0.2617732  0.086110051   0.10464934   0.16803291    0.2389985   0.43072533   0.71616658    3.6854129            0   -796.71301   0.13567756   -796.57319   0.27447087   -796.33458   0.41834734   -796.28229   0.56387269   -796.35198   0.71104383   -796.57442   0.85697022   -796.82426            1   -796.99845 
49    0.2567546  0.084007001   0.10308708   0.16446211   0.23444263   0.42989504    0.7156563    3.6888781            0   -796.71322    0.1357232   -796.57371   0.27449098   -796.33532   0.41826533   -796.28332    0.5637848   -796.35329    0.7109583    -796.5754   0.85688628   -796.82495            1   -796.99898 
50   0.25155914  0.081825321   0.10146236   0.16078035   0.22975775   0.42904743   0.71513257    3.6925027            0   -796.71343   0.13577256   -796.57424   0.27451537   -796.33608   0.41818316   -796.28438   0.56369344   -796.35463   0.71087031    -796.5764   0.85679875   -796.82566            1   -796.99951 
51   0.24619859  0.079570603  0.099778182   0.15699745   0.22495837   0.42818555   0.71459694    3.6962831            0   -796.71364   0.13582584   -796.57479   0.27454454   -796.33686    0.4181015   -796.28546   0.56359891   -796.35601   0.71078009   -796.57741   0.85670778   -796.82639            1   -797.00005 
52   0.24068537  0.077248805  0.098037726   0.15312333   0.22005924   0.42731241   0.71405096    3.7002152            0   -796.71387   0.13588321   -796.57536   0.27457898   -796.33766   0.41802109   -796.28655   0.56350155   -796.35741   0.71068786   -796.57844   0.85661354   -796.82714            1    -797.0006 
53   0.23503224  0.074866243  0.096244315   0.14916799   0.21507432   0.42643095   0.71349614    3.7042947            0   -796.71409   0.13594487   -796.57594    0.2746192   -796.33847   0.41794269   -796.28766   0.56340172   -796.35883   0.71059383   -796.57947   0.85651621   -796.82789            1   -797.00116 
54   0.22925222  0.072429569  0.094401357   0.14514151   0.21001834   0.42554404   0.71293395    3.7085172            0   -796.71433   0.13601101   -796.57654   0.27466572    -796.3393   0.41786709   -796.28878   0.56329987   -796.36026    0.7104982   -796.58051     0.856416   -796.82866            1   -797.00172 
55   0.22335861  0.070693435  0.092512336   0.14105386   0.20490683   0.42465444   0.71236584    3.7128779            0   -796.71457   0.13608181   -796.57714   0.27471908   -796.34014   0.41779514   -796.28991   0.56319647   -796.36172   0.71040116   -796.58154   0.85631312   -796.82943            1   -797.00228 
56   0.21736491  0.069624572  0.090581096   0.13691503   0.19975434   0.42376479   0.71179315    3.7173717            0   -796.71481   0.13615748   -796.57776   0.27477981   -796.34099    0.4177277   -796.29104   0.56309205   -796.36318   0.71030288   -796.58258   0.85620781   -796.83021            1   -797.00283 
57   0.21128466     0.068518  0.088611469   0.13273498   0.19457522   0.42287762   0.71121722    3.7219936            0   -796.71505   0.13623817   -796.57839   0.27484845   -796.34185   0.41766568   -796.29217   0.56298721   -796.36464    0.7102035   -796.58361   0.85610032     -796.831            1   -797.00339 
58   0.20513159  0.067373946  0.086607361    0.1285236   0.18938308   0.42199533   0.71063928    3.7267379            0    -796.7153   0.13632408   -796.57903   0.27492553   -796.34271      0.41761    -796.2933   0.56288258   -796.36611   0.71010317   -796.58463   0.85599093   -796.83179            1   -797.00394 
59   0.19891968  0.066192618  0.084572754   0.12429089     0.184192   0.42112015   0.71006054    3.7315991            0   -796.71555   0.13641534   -796.57968   0.27501155   -796.34358   0.41756161   -796.29443   0.56277887   -796.36758     0.710002   -796.58564   0.85587991   -796.83258            1   -797.00449 
60   0.19266194  0.064974387  0.082511664   0.12004598   0.17901698   0.42025419   0.70948209    3.7365711            0    -796.7158   0.13651212   -796.58033   0.27510704   -796.34444   0.41752146   -796.29554   0.56267682   -796.36904   0.70990011   -796.58664   0.85576757   -796.83337            1   -797.00502 
61   0.18637293  0.063719338  0.080428132    0.1157977   0.17387131   0.41939937   0.70890499     3.741648            0   -796.71605   0.13661453   -796.58099   0.27521247   -796.34531   0.41749053   -796.29665   0.56257725   -796.37049   0.70979761   -796.58761   0.85565423   -796.83416            1   -797.00555 
62   0.18006594  0.062424509  0.078326186   0.11155448   0.16876769   0.41855746   0.70833018    3.7468234            0    -796.7163    0.1367227   -796.58165    0.2753283   -796.34617    0.4174698   -796.29774   0.56248103   -796.37194    0.7096946   -796.58858    0.8555402   -796.83495            1   -797.00607 
63   0.17375514  0.061091556  0.076209656   0.10732644   0.16371798   0.41773008   0.70775856    3.7520908            0   -796.71655   0.13683673   -796.58231   0.27545497   -796.34704   0.41746025   -796.29882   0.56238907   -796.37337   0.70959118   -796.58952   0.85542582   -796.83574            1   -797.00658 
64   0.16746405  0.059725392  0.074082514   0.10312242   0.15873409   0.41691869   0.70719096    3.7574437            0    -796.7168   0.13695669   -796.58298   0.27559288   -796.34789   0.41746285   -796.29988   0.56230232   -796.37478   0.70948751   -796.59044   0.85531144   -796.83653            1   -797.00707 
65   0.16133758  0.058318095  0.071949324  0.098954242    0.1538286   0.41612463   0.70662819    3.7628748            0   -796.71705   0.13708258   -796.58364   0.27574235   -796.34874   0.41747853   -796.30093   0.56222179   -796.37617    0.7093837   -796.59133   0.85519738   -796.83731            1   -797.00755 
66   0.15733354  0.056896921   0.06982269  0.094880968   0.14902145   0.41534968   0.70607136    3.7683727            0    -796.7173   0.13721445   -796.58431   0.27590355   -796.34958   0.41750819   -796.30195   0.56214861   -796.37754    0.7092802    -796.5922   0.85508416   -796.83808            1   -797.00802 
67   0.18348932  0.055399153  0.067845845  0.091679772   0.14447315   0.41460375   0.70552708    3.7738678            0   -796.71754   0.13734992   -796.58497   0.27607435    -796.3504    0.4175517   -796.30294   0.56208433   -796.37882   0.70917802   -796.59303   0.85497334   -796.83882            1   -797.00846 
68   0.37890712   0.13605602  0.067458698  0.096173443    0.1418206   0.41400585   0.70507879    3.7784582            0   -796.71774   0.13746508   -796.58548   0.27622145   -796.35103    0.4175961   -796.30373   0.56203903   -796.37934   0.70909831   -796.59357   0.85488541   -796.83922            1   -797.00881 
69   0.17748845  0.054059935  0.065844734  0.087956762   0.14014733   0.41391202   0.70501522    3.7791313            0   -796.71777   0.13748417   -796.58559   0.27624837   -796.35118   0.41760921   -796.30386   0.56203991   -796.38008   0.70908631   -796.59381   0.85487228   -796.83954            1   -797.00887 
70   0.14195649  0.053743044  0.065306692  0.086267405   0.13918161   0.41377618    0.7049144    3.7801763            0   -796.71782   0.13751129   -796.58572   0.27628503   -796.35133   0.41762347   -796.30404   0.56203193   -796.38039   0.70906733   -796.59397   0.85485217   -796.83971            1   -797.00895 
71   0.14067558  0.053432376  0.064878599  0.085468709   0.13827399   0.41363107   0.70480557    3.7813057            0   -796.71787   0.13754084   -796.58585   0.27632466    -796.3515   0.41763904   -796.30423   0.56202292   -796.38065   0.70904703   -796.59414   0.85483054   -796.83986            1   -797.00904 
72   0.13936643  0.053101296  0.064420048  0.084615364     0.137306   0.41347641   0.70468921    3.7825191            0   -796.71792   0.13757279     -796.586   0.27636771   -796.35167   0.41765646   -796.30444   0.56201373   -796.38093   0.70902531   -796.59431   0.85480741   -796.84003            1   -797.00913 
73   0.13797487  0.052746539  0.063931413  0.083708471    0.1362797   0.41331258   0.70456554    3.7838158            0   -796.71797   0.13760717   -796.58615   0.27641422   -796.35186   0.41767586   -796.30466   0.56200449   -796.38123   0.70900223   -796.59449   0.85478284    -796.8402            1   -797.00923 
74   0.13650241  0.052368289  0.063413397  0.082749683   0.13519752   0.41313999   0.70443477    3.7851946            0   -796.71803   0.13764399   -796.58631   0.27646428   -796.35206    0.4176974   -796.30489   0.56199533   -796.38155   0.70897782   -796.59469   0.85475687   -796.84039            1   -797.00933 
75   0.13495153   0.05196667  0.062866657  0.081740839   0.13406201   0.41295906   0.70429714    3.7866543            0   -796.71809   0.13768328   -796.58648   0.27651795   -796.35227   0.41772123   -796.30513   0.56198639   -796.38188   0.70895214   -796.59489   0.85472955   -796.84058            1   -797.00943 
76   0.13332486   0.05154181  0.062291932  0.080683809   0.13287583   0.41277022   0.70415289    3.7881936            0   -796.71816   0.13772504   -796.58666   0.27657529   -796.35249   0.41774751   -796.30539   0.56197783   -796.38223   0.70892525    -796.5951   0.85470095   -796.84079            1   -797.00954 
77   0.13162511  0.051093854  0.061690027  0.079580546   0.13164175   0.41257392   0.70400229    3.7898114            0   -796.71823    0.1377693   -796.58685   0.27663638   -796.35271   0.41777641   -796.30565    0.5619698    -796.3826    0.7088972   -796.59532   0.85467111     -796.841            1   -797.00965 
78   0.12985513  0.050622953  0.061061731  0.078433041   0.13036262   0.41237062   0.70384558    3.7915061            0    -796.7183   0.13781607   -796.58705    0.2767013   -796.35295   0.41780812   -796.30593   0.56196247   -796.38297   0.70886805   -796.59555   0.85464011   -796.84122            1   -797.00977 
79   0.12801781  0.050129275  0.060407859  0.077243393    0.1290414    0.4121608   0.70368305    3.7932763            0   -796.71837   0.13786536   -796.58725    0.2767701   -796.35319   0.41784281   -796.30621   0.56195603   -796.38337   0.70883789   -796.59578   0.85460801   -796.84145            1   -797.00989 
80   0.12611621  0.049612996  0.059729247  0.076013735   0.12768115   0.41194492   0.70351496    3.7951205            0   -796.71845   0.13791718   -796.58746   0.27684287   -796.35345   0.41788066    -796.3065   0.56195065   -796.38377   0.70880679   -796.59602   0.85457488   -796.84169            1   -797.01002 
81   0.12415342  0.049074308  0.059026746  0.074746242   0.12628499   0.41172347   0.70334159    3.7970369            0   -796.71852   0.13797155   -796.58768   0.27691967   -796.35371   0.41792188    -796.3068   0.56194654   -796.38419   0.70877482   -796.59627    0.8545408   -796.84194            1   -797.01014 
82   0.12213257  0.048513413  0.058301224  0.073443149   0.12485603   0.41149694   0.70316324    3.7990241            0    -796.7186   0.13802846    -796.5879   0.27700057   -796.35398   0.41796665   -796.30711    0.5619439   -796.38462   0.70874207   -796.59652   0.85450583    -796.8422            1   -797.01027 
83   0.12005689  0.047930529  0.057553557  0.072106697   0.12339741   0.41126581   0.70298018    3.8010801            0   -796.71869   0.13808792   -796.58813   0.27708563   -796.35425   0.41801517   -796.30742   0.56194294   -796.38505   0.70870865   -796.59678   0.85447006   -796.84246            1    -797.0104 
84   0.11792961  0.047325885  0.056784625  0.070739133   0.12191232   0.41103058   0.70279272    3.8032031            0   -796.71877   0.13814993   -796.58837   0.27717491   -796.35454   0.41806764   -796.30774   0.56194387    -796.3855   0.70867466   -796.59705   0.85443358   -796.84273            1   -797.01053 
85   0.11575399  0.046699732  0.055995313  0.069342736   0.12040413   0.41079173   0.70260114    3.8053914            0   -796.71886   0.13821449   -796.58862   0.27726847   -796.35483   0.41812425   -796.30807   0.56194693   -796.38596   0.70864021   -796.59732   0.85439646   -796.84301            1   -797.01067 
86   0.11353331  0.046052322  0.055186502   0.06791979   0.11887615   0.41054974   0.70240575    3.8076429            0   -796.71895   0.13828159   -796.58886   0.27736636   -796.35512   0.41818521    -796.3084   0.56195234   -796.38643   0.70860541   -796.59759   0.85435881   -796.84329            1    -797.0108 
87   0.11127089  0.045383946  0.054359066  0.066472578   0.11733167    0.4103051   0.70220684    3.8099555            0   -796.71904   0.13835121   -796.58912   0.27746862   -796.35542   0.41825071   -796.30873   0.56196034    -796.3869    0.7085704   -796.59786   0.85432071   -796.84358            1   -797.01094 
88   0.10897008  0.044694873  0.053513869  0.065003375   0.11577401   0.41005827   0.70200471    3.8123274            0   -796.71913   0.13842335   -796.58938   0.27757529   -796.35572   0.41832094   -796.30907   0.56197118   -796.38739   0.70853532   -796.59814   0.85428227   -796.84388            1   -797.01107 
89   0.10663434  0.043985466  0.052651758  0.063514435   0.11420635   0.40980972   0.70179966    3.8147563            0   -796.71922   0.13849798   -796.58964    0.2776864   -796.35603   0.41839609   -796.30941    0.5619851   -796.38787   0.70850033   -796.59843   0.85424358   -796.84418            1   -797.01121 
90    0.1042683  0.043256007  0.051773568  0.062007994   0.11263207   0.40955992     0.701592    3.8172401            0   -796.71931   0.13857507   -796.58991   0.27780197   -796.35635   0.41847635   -796.30975   0.56200234   -796.38837   0.70846557   -796.59871   0.85420476   -796.84449            1   -797.01134 
91   0.10188506  0.042507073  0.050880127   0.06048618   0.11105448   0.40930932   0.70138202    3.8197766            0   -796.71941   0.13865459   -796.59018   0.27792201   -796.35666   0.41856189    -796.3101   0.56202319   -796.38887   0.70843125     -796.599   0.85416591    -796.8448            1   -797.01148 
92  0.099563819  0.041738545  0.049972394  0.058951551   0.10947712   0.40905838   0.70117005    3.8223631            0    -796.7195   0.13873646   -796.59046   0.27804649   -796.35698   0.41865285   -796.31044   0.56204785   -796.38937    0.7083975   -796.59929   0.85412716   -796.84512            1   -797.01161 
93  0.097962932  0.040953149  0.049052582  0.057407847   0.10790476    0.4088078   0.70095662    3.8249945            0    -796.7196   0.13882062   -796.59073   0.27817528    -796.3573   0.41874932   -796.31079   0.56207661   -796.38988    0.7083647   -796.59958   0.85408867   -796.84544            1   -797.01175 
94    0.1028969  0.040154545  0.048134259  0.055871603   0.10635593   0.40856023   0.70074394    3.8276454            0    -796.7197   0.13890598   -796.59101   0.27830698   -796.35762   0.41885027   -796.31113   0.56210918   -796.39038   0.70833302   -796.59986   0.85405101   -796.84575            1   -797.01188 
95   0.14554328  0.040291494  0.047323602  0.054470009   0.10495815   0.40833532   0.70054912    3.8301032            0   -796.71978   0.13898575   -796.59126   0.27843052   -796.35791   0.41894696   -796.31145   0.56214278   -796.39079   0.70830651   -796.60006   0.85401747   -796.84604            1     -797.012 
96   0.14250405    0.0399502  0.046887159   0.05376319   0.10425743    0.4082228   0.70045096    3.8313442            0   -796.71983   0.13902565   -796.59139   0.27849375   -796.35806   0.41899755    -796.3116   0.56216242   -796.39103   0.70829483    -796.6002   0.85400191   -796.84619            1   -797.01206 
97   0.10269008  0.038929812  0.046731195  0.053562134   0.10405599   0.40819135   0.70042342    3.8316845            0   -796.71984   0.13903737   -796.59143   0.27851223   -796.35811    0.4190129   -796.31165   0.56216913   -796.39115   0.70829221    -796.6003   0.85399735   -796.84625            1   -797.01207 
98  0.091949945  0.038794794  0.046567804  0.053308348   0.10380466   0.40815113   0.70038817    3.8321285            0   -796.71986   0.13905212   -796.59148   0.27853546   -796.35816   0.41903188    -796.3117   0.56217665   -796.39124   0.70828795   -796.60036   0.85399151    -796.8463            1   -797.01209 
99  0.091547279  0.038639465  0.046389814  0.053020192   0.10352061    0.4081054   0.70034803    3.8326371            0   -796.71987   0.13906888   -796.59153   0.27856189   -796.35822   0.41905346   -796.31177   0.56218505   -796.39134   0.70828286   -796.60041   0.85398488   -796.84637            1   -797.01212 
100  0.091121718   0.03846738  0.046194127  0.052702836   0.10320861    0.4080551   0.70030381    3.8331988            0   -796.71989   0.13908739   -796.59159   0.27859115   -796.35829   0.41907743   -796.31184   0.56219446   -796.39144   0.70827728   -796.60047   0.85397762   -796.84643            1   -797.01214 
101  0.090657506  0.038279056  0.045980481  0.052357005   0.10286949    0.4080004   0.70025563    3.8338125            0   -796.71992   0.13910764   -796.59166    0.2786232   -796.35836   0.41910382   -796.31191   0.56220494   -796.39156   0.70827126   -796.60054   0.85396973   -796.84651            1   -797.01217 
102  0.090154453  0.038074631  0.045749034  0.051983161   0.10250394    0.4079414   0.70020355    3.8344778            0   -796.71994   0.13912965   -796.59173   0.27865807   -796.35844   0.41913265     -796.312   0.56221653   -796.39168   0.70826487   -796.60061   0.85396126   -796.84659            1    -797.0122 
103  0.089612937  0.037854186  0.045499977  0.051581814   0.10211272    0.4078782   0.70014764    3.8351942            0   -796.71996   0.13915339    -796.5918   0.27869574   -796.35852   0.41916397   -796.31209    0.5622293   -796.39182   0.70825813   -796.60068   0.85395222   -796.84668            1   -797.01223 
104  0.089033368  0.037617809  0.045233515   0.05115351   0.10169664   0.40781092   0.70008798    3.8359612            0   -796.71999   0.13917887   -796.59188   0.27873623   -796.35861   0.41919781   -796.31218   0.56224328   -796.39196   0.70825108   -796.60077   0.85394263   -796.84677            1   -797.01227 
105   0.08841618  0.037365592  0.044949865   0.05069883   0.10125655   0.40773969   0.70002465    3.8367782            0   -796.72002   0.13920608   -796.59196   0.27877954   -796.35871   0.41923422   -796.31228   0.56225856   -796.39211   0.70824377   -796.60085   0.85393252   -796.84687            1    -797.0123 
106  0.087761835  0.037097638  0.044649256  0.050218387   0.10079338   0.40766464   0.69995775    3.8376446            0   -796.72005   0.13923501   -796.59205   0.27882566   -796.35881   0.41927324   -796.31238   0.56227517   -796.39227   0.70823624   -796.60094   0.85392193   -796.84697            1   -797.01234 
107  0.087070817  0.036814056  0.044331924  0.049712823   0.10030807   0.40758591   0.69988735    3.8385598            0   -796.72008   0.13926564   -796.59215   0.27887459   -796.35892   0.41931491   -796.31249    0.5622932   -796.39244   0.70822854   -796.60104   0.85391089   -796.84709            1   -797.01238 
108  0.086343632  0.036514966  0.043998118  0.049182811  0.099801635   0.40750364   0.69981356    3.8395232            0   -796.72011   0.13929798   -796.59224   0.27892634   -796.35903   0.41935928   -796.31261   0.56231272   -796.39262   0.70822074   -796.60114   0.85389943    -796.8472            1   -797.01242 
109  0.085580809  0.036200494  0.043648093   0.04862905  0.099275116   0.40741798   0.69973649     3.840534            0   -796.72015   0.13933199   -796.59235   0.27898089   -796.35914   0.41940639   -796.31273   0.56233379   -796.39281   0.70821288   -796.60125    0.8538876   -796.84732            1   -797.01247 
110  0.084782935  0.035870774  0.043282113  0.048052262  0.098729597   0.40732908   0.69965622    3.8415914            0   -796.72018   0.13936768   -796.59245   0.27903825   -796.35927   0.41945628   -796.31286   0.56235649     -796.393   0.70820503   -796.60136   0.85387542   -796.84745            1   -797.01251 
111  0.083950696  0.035525951  0.042900447  0.047453195  0.098166215    0.4072371   0.69957288    3.8426948            0   -796.72022   0.13940502   -796.59257   0.27909841   -796.35939   0.41950902   -796.31299    0.5623809    -796.3932   0.70819726   -796.60147   0.85386295   -796.84759            1   -797.01256 
112  0.083084542  0.035166181  0.042503371  0.046832614  0.097586114    0.4071422   0.69948657    3.8438432            0   -796.72026     0.139444   -796.59268   0.27916135   -796.35952   0.41956463   -796.31312    0.5624071   -796.39341   0.70818963   -796.60159   0.85385022   -796.84772            1   -797.01261 
113  0.082185055   0.03479162  0.042091166  0.046191299  0.096990505   0.40704456   0.69939741    3.8450359            0    -796.7203   0.13948459    -796.5928   0.27922707   -796.35966   0.41962317   -796.31326   0.56243518   -796.39363   0.70818222   -796.60172    0.8538373   -796.84787            1   -797.01265 
114  0.081252849  0.034402444  0.041664126  0.045530054  0.096380627   0.40694433   0.69930552     3.846272            0   -796.72034   0.13952678   -796.59293   0.27929556    -796.3598   0.41968468    -796.3134   0.56246522   -796.39385   0.70817511   -796.60185   0.85382422   -796.84802            1    -797.0127 
115  0.080288531  0.033998827  0.041222523  0.044849697  0.095757708    0.4068417   0.69921103    3.8475505            0   -796.72039   0.13957054   -796.59305   0.27936678   -796.35994   0.41974921   -796.31354   0.56249732   -796.39408   0.70816839   -796.60198   0.85381104   -796.84817            1   -797.01275 
116  0.079292577  0.033580585  0.040766642  0.044151056  0.095123027   0.40673684   0.69911405    3.8488705            0   -796.72043   0.13961585   -796.59318   0.27944074   -796.36009    0.4198168   -796.31369   0.56253155   -796.39431   0.70816213   -796.60211   0.85379782   -796.84833            1   -797.01281 
117  0.078265102  0.033146471  0.040296767  0.043434968  0.094477881   0.40662991   0.69901472    3.8502311            0   -796.72047   0.13966267   -796.59332   0.27951739   -796.36024   0.41988749   -796.31384   0.56256802   -796.39456   0.70815644   -796.60225   0.85378462    -796.8485            1   -797.01286 
118   0.07720747  0.032698529  0.039813184  0.042702277  0.093823554   0.40652111   0.69891318    3.8516312            0   -796.72052   0.13971098   -796.59346   0.27959671    -796.3604   0.41996132     -796.314   0.56260682    -796.3948   0.70815142    -796.6024   0.85377151   -796.84867            1   -797.01291 
119  0.076120354  0.032236973  0.039316172  0.041953833    0.0931614   0.40641061   0.69880954    3.8530698            0   -796.72057   0.13976075    -796.5936   0.27967867   -796.36056   0.42003832   -796.31415   0.56264805   -796.39506   0.70814715   -796.60255   0.85375854   -796.84884            1   -797.01296 
120  0.075004433  0.031762063  0.038806011   0.04119049  0.092492786   0.40629859   0.69870396    3.8545459            0   -796.72061   0.13981193   -796.59374   0.27976323   -796.36072   0.42011853   -796.31431   0.56269179   -796.39532   0.70814376    -796.6027   0.85374578   -796.84902            1   -797.01302 
121  0.073860393  0.031273996  0.038282975  0.040413105  0.091819074   0.40618523   0.69859656    3.8560583            0   -796.72066   0.13986448   -796.59389   0.27985035   -796.36088   0.42020197   -796.31448   0.56273814   -796.39558   0.70814136   -796.60285   0.85373333   -796.84921            1   -797.01307 
122  0.072688926  0.030773126  0.037747333  0.039622533  0.091141638   0.40607071   0.69848749     3.857606            0   -796.72071   0.13991837   -796.59404   0.27993998   -796.36105   0.42028867   -796.31464   0.56278722   -796.39585   0.70814006   -796.60301   0.85372124   -796.84939            1   -797.01313 
123  0.071490707  0.030259492  0.037199346  0.038819625  0.090461852   0.40595522   0.69837689    3.8591879            0   -796.72076   0.13997355   -796.59419   0.28003208   -796.36122   0.42037865    -796.3148    0.5628391   -796.39613   0.70813999   -796.60318    0.8537096   -796.84959            1   -797.01318 
124  0.070266405  0.029733903  0.036639271  0.038005229  0.089781116   0.40583892   0.69826491    3.8608027            0   -796.72081   0.14002997   -796.59434   0.28012658    -796.3614   0.42047193   -796.31497   0.56289389   -796.39641   0.70814128   -796.60334    0.8536985   -796.84979            1   -797.01324 
125   0.06901699  0.029195302  0.036067355  0.037180189  0.089100774   0.40572201   0.69815168    3.8624494            0   -796.72086   0.14008757    -796.5945   0.28022342   -796.36157   0.42056852   -796.31514   0.56295169    -796.3967   0.70814407   -796.60351   0.85368803   -796.84999            1   -797.01329 
126  0.067744488  0.028647549  0.035483846  0.036345315  0.088422404   0.40560466   0.69803737    3.8641268            0   -796.72091    0.1401463   -796.59466   0.28032254   -796.36175   0.42066843   -796.31531    0.5630126   -796.39698   0.70814849   -796.60369   0.85367829    -796.8502            1   -797.01334 
127  0.066462409  0.028080921  0.034889058  0.035501559  0.087747874   0.40548704   0.69792211    3.8658333            0   -796.72096   0.14020609   -796.59482   0.28042382   -796.36193   0.42077162   -796.31548   0.56307669   -796.39728   0.70815468   -796.60387   0.85366936   -796.85041            1    -797.0134 
128  0.065303498  0.027525859  0.034284049  0.034650659  0.087088598   0.40536937   0.69780611     3.867568            0   -796.72102   0.14026689   -796.59498   0.28052729   -796.36211   0.42087817   -796.31565   0.56314411   -796.39758   0.70816284   -796.60405   0.85366139   -796.85063            1   -797.01345 
129  0.065759231   0.02689001  0.033678189  0.033803404  0.086544897   0.40525224   0.69768992    3.8693228            0   -796.72107   0.14032836   -796.59514   0.28063213   -796.36229   0.42098743   -796.31582   0.56321455   -796.39788   0.70817298   -796.60423   0.85365443   -796.85085            1   -797.01351 
130  0.083859846  0.026500125  0.033172215  0.033069248  0.087316091   0.40514038   0.69757826    3.8710486            0   -796.72112   0.14038872   -796.59528   0.28073639   -796.36246   0.42109712   -796.31598   0.56328662   -796.39817   0.70818536   -796.60442   0.85364905   -796.85107            1   -797.01356 
131   0.13975173  0.038579059  0.033118428  0.032858811  0.092420473   0.40506665   0.69750422     3.872258            0   -796.72115   0.14043043   -796.59533   0.28080761   -796.36253   0.42117432   -796.31609   0.56333835   -796.39837   0.70819513   -796.60455   0.85364597   -796.85122            1   -797.01359 
132  0.089902047   0.02573917  0.032718918  0.032437469  0.087354594   0.40505089   0.69748838    3.8724301            0   -796.72116    0.1404361   -796.59541   0.28081794    -796.3626    0.4211855   -796.31611   0.56334583    -796.3984   0.70819659   -796.60456   0.85364559   -796.85124            1    -797.0136 
133  0.064748232  0.025758729  0.032504399  0.032190289  0.085425377    0.4050333   0.69747066    3.8726785            0   -796.72117   0.14044461   -796.59545   0.28083309   -796.36264   0.42120176   -796.31613   0.56335684   -796.39845   0.70819893   -796.60459   0.85364518   -796.85128            1    -797.0136 
134  0.061124703  0.025702067  0.032380025  0.032027351  0.085093244   0.40501366   0.69745084    3.8729814            0   -796.72118   0.14045513   -796.59548   0.28085153   -796.36268   0.42122155   -796.31616   0.56337033    -796.3985   0.70820184   -796.60462    0.8536447   -796.85131            1   -797.01361 
135  0.060726316  0.025599904  0.032260008  0.031865275  0.084966969   0.40499211   0.69742908    3.8733175            0   -796.72118   0.14046683   -796.59552   0.28087189   -796.36271    0.4212435   -796.31619   0.56338533   -796.39856    0.7082051   -796.60466    0.8536442   -796.85136            1   -797.01362 
136  0.060442085  0.025478329  0.032129672   0.03168937  0.084838109   0.40496866   0.69740537    3.8736844            0    -796.7212    0.1404796   -796.59555    0.2808941   -796.36275   0.42126749   -796.31623   0.56340179   -796.39862   0.70820875    -796.6047    0.8536437   -796.85141            1   -797.01363 
137  0.060135887  0.025345133  0.031988362  0.031499054  0.084699368   0.40494336   0.69737974    3.8740819            0   -796.72121   0.14049343   -796.59559   0.28091817   -796.36279   0.42129356   -796.31626   0.56341974   -796.39869   0.70821281   -796.60474   0.85364322   -796.85146            1   -797.01364 
138  0.059806146  0.025201582  0.031836126  0.031294497  0.084550996   0.40491623   0.69735222    3.8745099            0   -796.72122   0.14050831   -796.59563    0.2809441   -796.36284   0.42132171    -796.3163    0.5634392   -796.39876   0.70821731   -796.60479   0.85364278   -796.85151            1   -797.01366 
139  0.059453031   0.02504779  0.031673028  0.031075895  0.084393298   0.40488731   0.69732285     3.874968            0   -796.72123   0.14052424   -796.59567   0.28097186   -796.36288   0.42135194   -796.31635   0.56346019   -796.39884   0.70822228   -796.60484    0.8536424   -796.85157            1   -797.01367 
140  0.059076725  0.024883824  0.031499151  0.030843456  0.084226603   0.40485666   0.69729166    3.8754561            0   -796.72125   0.14054119   -796.59571   0.28100146   -796.36293   0.42138426   -796.31639   0.56348273   -796.39892   0.70822774   -796.60489    0.8536421   -796.85164            1   -797.01368 
141  0.058677426   0.02470976   0.03131456    0.0305974  0.084051141   0.40482431   0.69725869    3.8759737            0   -796.72126   0.14055917   -796.59576   0.28103286   -796.36299   0.42141866   -796.31644   0.56350685   -796.39901   0.70823374   -796.60495    0.8536419   -796.85171            1    -797.0137 
142  0.058255342  0.024525676  0.031119326   0.03033796  0.083867396   0.40479033   0.69722398    3.8765206            0   -796.72128   0.14057815   -796.59581   0.28106606   -796.36304   0.42145515   -796.31649   0.56353256    -796.3991   0.70824029   -796.60501   0.85364183   -796.85178            1   -797.01371 
143  0.057810697  0.024331658  0.030913529  0.030065379  0.083675753   0.40475475   0.69718757    3.8770965            0   -796.72129   0.14059812   -796.59586   0.28110102    -796.3631   0.42149372   -796.31654   0.56355989    -796.3992   0.70824745   -796.60508    0.8536419   -796.85185            1   -797.01373 
144  0.057343718  0.024127801  0.030697253  0.029779913   0.08347664   0.40471763   0.69714951    3.8777009            0   -796.72131   0.14061906   -796.59592   0.28113774   -796.36316   0.42153438   -796.31659   0.56358887    -796.3993   0.70825524   -796.60514   0.85364215   -796.85193            1   -797.01374 
145  0.056854646    0.0239142  0.030470587  0.029481828  0.083270459   0.40467903   0.69710984    3.8783335            0   -796.72133   0.14064096   -796.59597   0.28117619   -796.36323   0.42157713   -796.31665   0.56361952   -796.39941   0.70826371   -796.60521   0.85364261   -796.85202            1   -797.01376 
146  0.056343735  0.023690959  0.030233616  0.029171399  0.083057645     0.404639   0.69706861     3.878994            0   -796.72135   0.14066379   -796.59603   0.28121634    -796.3633   0.42162195   -796.31671   0.56365187   -796.39952    0.7082729   -796.60529    0.8536433   -796.85211            1   -797.01378 
147  0.055811248  0.023458188  0.029986432   0.02884891  0.082838652   0.40459761   0.69702587    3.8796818            0   -796.72137   0.14068754    -796.5961   0.28125816   -796.36337   0.42166885   -796.31677   0.56368595   -796.39964   0.70828285   -796.60536   0.85364426    -796.8522            1   -797.01379 
148  0.055257459     0.023216  0.029729129  0.028514657  0.082613948   0.40455492   0.69698167    3.8803966            0   -796.72139   0.14071218   -796.59616   0.28130164   -796.36344   0.42171783   -796.31683   0.56372178   -796.39976   0.70829361   -796.60544   0.85364551   -796.85229            1   -797.01381 
149  0.054682651  0.022964517  0.029461803  0.028168941   0.08238402   0.40451098   0.69693607     3.881138            0   -796.72141    0.1407377   -796.59623   0.28134674   -796.36352   0.42176888    -796.3169    0.5637594   -796.39989   0.70830524   -796.60553   0.85364711   -796.85239            1   -797.01383 
150  0.054087109  0.022703862  0.029184552  0.027812072  0.082149356   0.40446587   0.69688912    3.8819053            0   -796.72143   0.14076406   -796.59629   0.28139342   -796.36359   0.42182199   -796.31696   0.56379883   -796.40002   0.70831778   -796.60562   0.85364907    -796.8525            1   -797.01385 
151  0.053471144  0.022434168  0.028897475  0.027444368   0.08191046   0.40441965   0.69684088    3.8826983            0   -796.72145   0.14079125   -796.59636   0.28144166   -796.36367   0.42187716   -796.31703   0.56384011   -796.40015   0.70833129   -796.60571   0.85365145    -796.8526            1   -797.01387 
152  0.052835068  0.022155571  0.028600672  0.027066151  0.081667847   0.40437239   0.69679141    3.8835163            0   -796.72147   0.14081923   -796.59644   0.28149142   -796.36376   0.42193437    -796.3171   0.56388327   -796.40029   0.70834582    -796.6058   0.85365428   -796.85272            1   -797.01389 
153    0.0521792  0.021868214  0.028294244  0.026677754  0.081422047   0.40432415   0.69674077    3.8843588            0   -796.72149   0.14084799   -796.59651   0.28154265   -796.36384   0.42199363   -796.31717   0.56392833   -796.40043   0.70836143    -796.6059   0.85365761   -796.85283            1   -797.01391 
154  0.051503871  0.021572245  0.027978293  0.026279521  0.081173596   0.40427501   0.69668901    3.8852254            0   -796.72152   0.14087748   -796.59659   0.28159533   -796.36393   0.42205491   -796.31724   0.56397534   -796.40058   0.70837818     -796.606   0.85366148   -796.85295            1   -797.01393 
155  0.050809416  0.021267818  0.027652922   0.02587178  0.080923036   0.40422503   0.69663621    3.8861155            0   -796.72154   0.14090768   -796.59667   0.28164941   -796.36402    0.4221182   -796.31732   0.56402433   -796.40073   0.70839614    -796.6061   0.85366594   -796.85308            1   -797.01395 
156  0.050096181  0.020955092  0.027318235  0.025454877  0.080670919   0.40417429   0.69658242    3.8870285            0   -796.72156   0.14093855   -796.59675   0.28170484   -796.36411   0.42218349   -796.31739   0.56407532   -796.40089   0.70841537   -796.60621   0.85367104    -796.8532            1   -797.01397 
157   0.04936452  0.020634234  0.026974335  0.025029159  0.080417799   0.40412286   0.69652772    3.8879638            0   -796.72159   0.14097006   -796.59683   0.28176157    -796.3642   0.42225077   -796.31747   0.56412836   -796.40104   0.70843594   -796.60632   0.85367682   -796.85334            1   -797.01399 
158  0.048614795  0.020305416  0.026621325  0.024594977  0.080164242   0.40407081   0.69647216    3.8889209            0   -796.72161   0.14100219   -796.59691   0.28181957    -796.3643   0.42232001   -796.31754   0.56418348   -796.40121   0.70845791   -796.60644   0.85368335   -796.85347            1   -797.01402 
159  0.047847374  0.019968812  0.026259308  0.024152684  0.079910803   0.40401821   0.69641582    3.8898991            0   -796.72164   0.14103488     -796.597   0.28187877    -796.3644   0.42239119   -796.31762    0.5642407   -796.40137   0.70848138   -796.60655   0.85369068   -796.85361            1   -797.01404 
160  0.047062628   0.01962461  0.025888387  0.023702636  0.079657911   0.40396514   0.69635877    3.8908979            0   -796.72166   0.14106811   -796.59708   0.28193913   -796.36449    0.4224643    -796.3177   0.56430008   -796.40154   0.70850639   -796.60668   0.85369887   -796.85376            1   -797.01406 
161  0.046260931  0.019272981  0.025508662  0.023245189  0.079406213   0.40391167   0.69630107    3.8919165            0   -796.72169   0.14110183   -796.59717   0.28200058    -796.3646   0.42253931   -796.31778   0.56436163   -796.40171   0.70853305    -796.6068   0.85370798    -796.8539            1   -797.01408 
162  0.045442687  0.018914174  0.025120236  0.022780711  0.079156605   0.40385787   0.69624279    3.8929544            0   -796.72172   0.14113599   -796.59726   0.28206307    -796.3647   0.42261619   -796.31786    0.5644254   -796.40189   0.70856141   -796.60693   0.85371806   -796.85406            1    -797.0141 
163  0.044608391  0.018548195  0.024723223  0.022309647  0.078910097   0.40380381   0.69618401     3.894011            0   -796.72174   0.14117056   -796.59735   0.28212653    -796.3648   0.42269491   -796.31794   0.56449142   -796.40207   0.70859158   -796.60706    0.8537292   -796.85421            1   -797.01412 
164  0.043759271  0.018175975  0.024317892  0.021833229  0.078679591   0.40374958   0.69612481    3.8950853            0   -796.72177   0.14120548   -796.59744   0.28219089   -796.36491   0.42277543   -796.31802   0.56455971   -796.40225   0.70862362    -796.6072   0.85374144   -796.85437            1   -797.01414 
165  0.042905571  0.017795236  0.023906402  0.021361456  0.078579737   0.40369538   0.69606539    3.8961765            0    -796.7218   0.14124069   -796.59753   0.28225606   -796.36502    0.4228577    -796.3181   0.56463033   -796.40244   0.70865764   -796.60734   0.85375487   -796.85454            1   -797.01417 
166  0.042164348  0.017418421  0.023516001  0.021010756  0.080101447   0.40364275    0.6960073    3.8972773            0   -796.72182   0.14127598   -796.59762   0.28232163   -796.36512    0.4229412   -796.31818   0.56470275   -796.40263   0.70869344   -796.60748   0.85376945   -796.85471            1   -797.01419 
167  0.068656286  0.017519109   0.02346457  0.021974817  0.097257125   0.40360832   0.69596733    3.8983232            0   -796.72185   0.14130896   -796.59771   0.28238338   -796.36523   0.42302084   -796.31824   0.56477316    -796.4028   0.70872919   -796.60762   0.85378443   -796.85487            1   -797.01421 
168  0.080243588  0.022624392  0.023504658  0.022419399   0.10585946   0.40359237   0.69594856    3.8988411            0   -796.72186   0.14132545   -796.59775   0.28241421   -796.36528   0.42306071   -796.31827   0.56480825   -796.40288   0.70874745   -796.60769   0.85379235   -796.85495            1   -797.01422 
169   0.06585002   0.01736128  0.023228597  0.021519165  0.095415232   0.40357892   0.69593497     3.898894            0   -796.72186   0.14132711   -796.59776   0.28241738   -796.36528   0.42306486   -796.31828   0.56481201    -796.4029    0.7087494    -796.6077   0.85379318   -796.85496            1   -797.01422 
170  0.051595403  0.016836202   0.02299647   0.02075485  0.086201052   0.40356662   0.69592239    3.8989695            0   -796.72186   0.14132946   -796.59776   0.28242187   -796.36529   0.42307074    -796.3183   0.56481733   -796.40292   0.70875217   -796.60771   0.85379439   -796.85497            1   -797.01422 
171  0.041405296  0.016794288  0.022844075   0.02027921  0.080522669   0.40355688   0.69591217     3.899071            0   -796.72187   0.14133262   -796.59777   0.28242786    -796.3653    0.4230786   -796.31831   0.56482443   -796.40294    0.7087559   -796.60772   0.85379602   -796.85499            1   -797.01422 
172  0.040527933  0.016745797  0.022755279  0.020061414  0.078348082   0.40354907   0.69590371    3.8991977            0   -796.72187   0.14133656   -796.59778   0.28243532   -796.36531   0.42308838   -796.31832   0.56483325   -796.40296   0.70876056   -796.60774   0.85379806   -796.85501            1   -797.01422 
173  0.040372218  0.016691969  0.022689546  0.019959107  0.077836544   0.40354162   0.69589549    3.8993459            0   -796.72187   0.14134117    -796.5978   0.28244405   -796.36533   0.42309982   -796.31833   0.56484355   -796.40298   0.70876603   -796.60776   0.85380047   -796.85503            1   -797.01423 
174   0.04023268  0.016632649  0.022623537  0.019880352  0.077738753   0.40353361   0.69588658    3.8995135            0   -796.72188   0.14134638   -796.59781   0.28245391   -796.36534   0.42311277   -796.31834    0.5648552   -796.40301   0.70877223   -796.60778   0.85380322   -796.85506            1   -797.01423 
175  0.040082761  0.016567239  0.022551109  0.019798199  0.077697164   0.40352478   0.69587674    3.8996998            0   -796.72188   0.14135217   -796.59783   0.28246488   -796.36536   0.42312718   -796.31836   0.56486819   -796.40305   0.70877917   -796.60781    0.8538063   -796.85509            1   -797.01423 
176  0.039918204  0.016495396  0.022471423  0.019708328  0.077657042   0.40351508   0.69586594    3.8999049            0   -796.72189   0.14135854   -796.59784   0.28247694   -796.36538   0.42314304   -796.31837   0.56488253   -796.40308   0.70878686   -796.60784   0.85380973   -796.85512            1   -797.01424 
177  0.039738695  0.016417038   0.02238444  0.019610405  0.077613855   0.40350455   0.69585419    3.9001285            0   -796.72189   0.14136547   -796.59786   0.28249008    -796.3654   0.42316036   -796.31839   0.56489821   -796.40312   0.70879531   -796.60787   0.85381351   -796.85516            1   -797.01424 
178  0.039544299  0.016332186  0.022290181  0.019504482  0.077567487   0.40349318    0.6958415    3.9003705            0    -796.7219   0.14137296   -796.59788   0.28250429   -796.36543   0.42317913    -796.3184   0.56491524   -796.40316   0.70880453    -796.6079   0.85381766    -796.8552            1   -797.01424 
179  0.039335102  0.016240883  0.022188673  0.019390634  0.077518043   0.40348099   0.69582788    3.9006309            0    -796.7219   0.14138099    -796.5979   0.28251956   -796.36545   0.42319935   -796.31842   0.56493364   -796.40321   0.70881454   -796.60794   0.85382218   -796.85524            1   -797.01425 
180  0.039111195  0.016143172  0.022079942  0.019268941  0.077465647     0.403468   0.69581336    3.9009094            0   -796.72191   0.14138957   -796.59793   0.28253588   -796.36548     0.423221   -796.31844    0.5649534   -796.40326   0.70882535   -796.60797   0.85382709   -796.85528            1   -797.01425 
181  0.038872677  0.016039099  0.021964019  0.019139491  0.077410428   0.40345423   0.69579794    3.9012059            0   -796.72192   0.14139869   -796.59795   0.28255323   -796.36551   0.42324408   -796.31846   0.56497453   -796.40331   0.70883698   -796.60802    0.8538324   -796.85533            1   -797.01426 
182  0.038619655  0.015928716  0.021840935  0.019002374  0.077352524   0.40343969   0.69578165    3.9015203            0   -796.72192   0.14140832   -796.59798    0.2825716   -796.36554   0.42326859   -796.31848   0.56499704   -796.40336   0.70884945   -796.60806   0.85383813   -796.85538            1   -797.01426 
183   0.03835224  0.015812075  0.021710724  0.018857689  0.077292078   0.40342441   0.69576451    3.9018523            0   -796.72193   0.14141847     -796.598   0.28259097   -796.36557   0.42329452   -796.31851   0.56502094   -796.40342   0.70886277   -796.60811   0.85384428   -796.85544            1   -797.01427 
184  0.038070552  0.015689234   0.02157342  0.018705537  0.077229243    0.4034084   0.69574652    3.9022019            0   -796.72194   0.14142912   -796.59803   0.28261133   -796.36561   0.42332185   -796.31853   0.56504623   -796.40348   0.70887697   -796.60816   0.85385088   -796.85549            1   -797.01428 
185  0.037774712  0.015560253  0.021429062  0.018546025  0.077164182   0.40339168   0.69572772    3.9025687            0   -796.72195   0.14144025   -796.59806   0.28263266   -796.36564   0.42335058   -796.31856   0.56507293   -796.40354   0.70889206   -796.60821   0.85385793   -796.85556            1   -797.01428 
186  0.037464841  0.015425198  0.021277688  0.018379266  0.077097061   0.40337428   0.69570812    3.9029526            0   -796.72196   0.14145187   -796.59809   0.28265494   -796.36568   0.42338071   -796.31858   0.56510103   -796.40361   0.70890807   -796.60826   0.85386547   -796.85562            1   -797.01429 
187  0.037141095  0.015284138  0.021119338  0.018205376  0.077028048   0.40335622   0.69568775    3.9033533            0   -796.72196   0.14146394   -796.59813   0.28267816   -796.36572   0.42341221   -796.31861   0.56513056   -796.40368   0.70892502   -796.60832    0.8538735   -796.85569            1    -797.0143 
188  0.036803631  0.015137138  0.020954055  0.018024477  0.076957323   0.40333752   0.69566662    3.9037707            0   -796.72197   0.14147647   -796.59816   0.28270229   -796.36576   0.42344509   -796.31864   0.56516151   -796.40375   0.70894293   -796.60838   0.85388205   -796.85576            1    -797.0143 
189  0.036452585  0.014984278  0.020781881  0.017836693  0.076885069    0.4033182   0.69564477    3.9042044            0   -796.72198   0.14148943    -796.5982   0.28272731   -796.36581   0.42347932   -796.31867    0.5651939   -796.40383   0.70896183   -796.60844   0.85389113   -796.85583            1   -797.01431 
190  0.036088116  0.014825631  0.020602862  0.017642154  0.076811475    0.4032983   0.69562222    3.9046543            0   -796.72199   0.14150281   -796.59823    0.2827532   -796.36585    0.4235149    -796.3187   0.56522773   -796.40391   0.70898174   -796.60851   0.85390077    -796.8559            1   -797.01432 
191  0.035710386  0.014661282  0.020417044  0.017440994  0.076736735   0.40327783   0.69559899    3.9051201            0     -796.722    0.1415166   -796.59827   0.28277994    -796.3659   0.42355182   -796.31873   0.56526302   -796.40399    0.7090027   -796.60857   0.85391099   -796.85598            1   -797.01433 
192  0.035319566  0.014491312  0.020224475  0.017233349  0.076661047   0.40325683    0.6955751    3.9056015            0   -796.72201   0.14153077   -796.59831   0.28280749   -796.36594   0.42359006   -796.31876   0.56529977   -796.40408   0.70902472   -796.60865   0.85392181   -796.85607            1   -797.01433 
193  0.034915829  0.014315813  0.020025204  0.017019341  0.076584615   0.40323531   0.69555059    3.9060982            0   -796.72203   0.14154531   -796.59835   0.28283585   -796.36599    0.4236296   -796.31879     0.565338   -796.40416   0.70904785   -796.60872   0.85393326   -796.85615            1   -797.01434 
194  0.034499359   0.01413487  0.019819284  0.016799126  0.076507644   0.40321331   0.69552549    3.9066099            0   -796.72204    0.1415602   -796.59839   0.28286497   -796.36604   0.42367044   -796.31882   0.56537772   -796.40425    0.7090721    -796.6088   0.85394535   -796.85624            1   -797.01435 
195  0.034070341  0.013948589  0.019606773  0.016572859  0.076430346   0.40319086   0.69549981    3.9071364            0   -796.72205   0.14157542   -796.59843   0.28289484   -796.36609   0.42371255   -796.31886   0.56541893   -796.40435   0.70909752   -796.60887   0.85395813   -796.85633            1   -797.01436 
196  0.033628967  0.013757049  0.019387713  0.016340689  0.076352934   0.40316797    0.6954736    3.9076773            0   -796.72206   0.14159095   -796.59848   0.28292542   -796.36615   0.42375593   -796.31889   0.56546165   -796.40444   0.70912413   -796.60896   0.85397161   -796.85643            1   -797.01437 
197  0.033175437  0.013560389   0.01916216  0.016102769  0.076275623   0.40314468   0.69544687    3.9082323            0   -796.72207   0.14160678   -796.59852   0.28295668    -796.3662   0.42380055   -796.31893   0.56550588   -796.40454   0.70915197   -796.60904   0.85398582   -796.85652            1   -797.01437 
198  0.032709954  0.013358639  0.018930166  0.015859254  0.076198633   0.40312102   0.69541966     3.908801            0   -796.72208   0.14162288   -796.59857    0.2829886   -796.36626    0.4238464   -796.31896   0.56555165   -796.40464   0.70918106   -796.60913   0.85400079   -796.85663            1   -797.01438 
199  0.032232727  0.013152064  0.018691789  0.015610303  0.076122183   0.40309702     0.695392    3.9093832            0    -796.7221   0.14163922   -796.59861   0.28302114   -796.36631   0.42389347     -796.319   0.56559895   -796.40475   0.70921146   -796.60922   0.85401656   -796.85673            1   -797.01439 
200   0.03174397  0.012940431  0.018447082  0.015356075  0.076046496    0.4030727   0.69536391    3.9099785            0   -796.72211    0.1416558   -796.59866   0.28305428   -796.36637   0.42394172   -796.31904   0.56564781   -796.40486   0.70924319   -796.60931   0.85403314   -796.85684            1    -797.0144 
201   0.03124392  0.012724671  0.018196104  0.015096732  0.075971795    0.4030481   0.69533544    3.9105865            0   -796.72212   0.14167258   -796.59871   0.28308797   -796.36643   0.42399114   -796.31907   0.56569824   -796.40497   0.70927629   -796.60941   0.85405058   -796.85695            1   -797.01441 
202  0.030732887  0.012502853  0.017938911  0.014832439  0.075898302   0.40302323    0.6953066    3.9112068            0   -796.72213   0.14168954   -796.59876   0.28312218   -796.36649   0.42404172   -796.31911   0.56575024   -796.40508    0.7093108   -796.60951    0.8540689   -796.85706            1   -797.01442 
203  0.030211978  0.012280561  0.017675564  0.014563381  0.075826247   0.40299814   0.69527744    3.9118391            0   -796.72215   0.14170666   -796.59881   0.28315689   -796.36655   0.42409344   -796.31915   0.56580383   -796.40519   0.70934677   -796.60961   0.85408815   -796.85718            1   -797.01443 
204  0.029689749  0.012042521  0.017406128  0.014289905  0.075755845   0.40297285   0.69524797     3.912483            0   -796.72216   0.14172391   -796.59886   0.28319204   -796.36662   0.42414626   -796.31919   0.56585902   -796.40531   0.70938422   -796.60972   0.85410835    -796.8573            1   -797.01443 
205  0.029257549  0.011834869  0.017130741  0.014014152  0.075687403   0.40294739   0.69521825     3.913138            0   -796.72217   0.14174127   -796.59891   0.28322762   -796.36668   0.42420016   -796.31922   0.56591581   -796.40543    0.7094232   -796.60983   0.85412953   -796.85743            1   -797.01444 
206  0.029965749  0.011513626  0.016850331  0.013759238   0.07562148   0.40292185   0.69518835    3.9138022            0   -796.72219   0.14175866   -796.59896   0.28326347   -796.36674   0.42425501   -796.31926   0.56597411   -796.40555   0.70946367   -796.60994   0.85415169   -796.85756            1   -797.01445 
207  0.041672004  0.011698896  0.016575025  0.013795566  0.075564709   0.40289683   0.69515897    3.9144603            0    -796.7222   0.14177572   -796.59901   0.28329883    -796.3668   0.42430957    -796.3193   0.56603258   -796.40567   0.70950472   -796.61005   0.85417437   -796.85768            1   -797.01446 
208  0.080062431  0.023952992  0.016382928  0.015183417  0.075549289   0.40287804   0.69513665    3.9149593            0   -796.72221   0.14178822   -796.59905   0.28332523   -796.36683   0.42435112   -796.31933   0.56607753   -796.40576   0.70953666   -796.61014   0.85419209   -796.85778            1   -797.01447 
209  0.042498485  0.010911915  0.016327483  0.013590467  0.075512453   0.40287497   0.69513327    3.9150395            0   -796.72221   0.14179033   -796.59906   0.28332936   -796.36686   0.42435778   -796.31933   0.56608481   -796.40578   0.70954188   -796.61015   0.85419503    -796.8578            1   -797.01447 
210  0.028048169  0.011049377  0.016272394  0.013168804  0.075496175   0.40287057   0.69512815    3.9151563            0   -796.72221   0.14179331   -796.59907   0.28333555   -796.36688   0.42436753   -796.31934   0.56609545    -796.4058   0.70954951   -796.61017   0.85419932   -796.85782            1   -797.01447 
211  0.027343575  0.011041673  0.016214661  0.013099415  0.075484435   0.40286557   0.69512225      3.91529            0   -796.72221   0.14179667   -796.59908   0.28334265   -796.36689    0.4243787   -796.31935   0.56610765   -796.40583   0.70955829   -796.61019   0.85420425   -796.85785            1   -797.01447 
212  0.027219454  0.010992919  0.016151914  0.013037651  0.075471941   0.40286012   0.69511584    3.9154356            0   -796.72222   0.14180033   -796.59909   0.28335037    -796.3669   0.42439087   -796.31936   0.56612098   -796.40586   0.70956789   -796.61022   0.85420964   -796.85788            1   -797.01447 
213  0.027087439  0.010936519  0.016084002   0.01297096  0.075458616   0.40285426   0.69510892    3.9155929            0   -796.72222   0.14180426    -796.5991    0.2833587   -796.36692   0.42440403   -796.31937   0.56613542   -796.40588   0.70957832   -796.61025   0.85421551   -796.85791            1   -797.01447 
214   0.02694553  0.010875893  0.016010942  0.012899325  0.075444511   0.40284797   0.69510151     3.915762            0   -796.72222   0.14180848   -796.59911   0.28336763   -796.36694   0.42441819   -796.31938   0.56615098   -796.40592   0.70958959   -796.61028   0.85422187   -796.85794            1   -797.01448 
215  0.026793784  0.010811076  0.015932751  0.012822785  0.075429679   0.40284127    0.6950936    3.9159426            0   -796.72223   0.14181297   -796.59913   0.28337717   -796.36695   0.42443333   -796.31939   0.56616766   -796.40595    0.7096017   -796.61031   0.85422871   -796.85798            1   -797.01448 
216  0.026632263  0.010742108  0.015849448  0.012741385  0.075414175   0.40283417   0.69508522    3.9161348            0   -796.72223   0.14181773   -796.59914    0.2833873   -796.36697   0.42444946    -796.3194   0.56618547   -796.40599   0.70961468   -796.61034   0.85423605   -796.85802            1   -797.01448 
217  0.026460975  0.010669011  0.015761053  0.012655171   0.07539806   0.40282666   0.69507635    3.9163384            0   -796.72223   0.14182276   -796.59916     0.283398   -796.36699   0.42446656   -796.31941   0.56620441   -796.40603   0.70962851   -796.61038   0.85424389   -796.85806            1   -797.01448 
218  0.026280047  0.010591827  0.015667586  0.012564192  0.075381398   0.40281877   0.69506702    3.9165533            0   -796.72224   0.14182804   -796.59917   0.28340928   -796.36701   0.42448463   -796.31942   0.56622448   -796.40607   0.70964322   -796.61042   0.85425224    -796.8581            1   -797.01449 
219  0.026089556  0.010510595  0.015569069  0.012468502  0.075364253    0.4028105   0.69505724    3.9167794            0   -796.72224   0.14183357   -796.59919   0.28342112   -796.36704   0.42450367   -796.31943   0.56624567   -796.40611   0.70965882   -796.61046   0.85426112   -796.85815            1   -797.01449 
220  0.025889581  0.010425357  0.015465525  0.012368154  0.075346694   0.40280186   0.69504701    3.9170165            0   -796.72225   0.14183935   -796.59921   0.28343351   -796.36706   0.42452366   -796.31944   0.56626801   -796.40615   0.70967531    -796.6105   0.85427052    -796.8582            1   -797.01449 
221  0.025680207  0.010336156  0.015356981  0.012263206  0.075328794   0.40279286   0.69503635    3.9172646            0   -796.72225   0.14184536   -796.59923   0.28344644   -796.36708    0.4245446   -796.31946   0.56629148    -796.4062   0.70969271   -796.61055   0.85428047   -796.85825            1   -797.01449 
222  0.025461522  0.010243039   0.01524346  0.012153718  0.075310627    0.4027835   0.69502525    3.9175234            0   -796.72226   0.14185161   -796.59925    0.2834599   -796.36711   0.42456649   -796.31947   0.56631609   -796.40625   0.70971102   -796.61059   0.85429097    -796.8583            1    -797.0145 
223  0.025233618  0.010146052   0.01512499  0.012039751  0.075292269   0.40277381   0.69501375    3.9177929            0   -796.72226   0.14185807   -796.59927   0.28347388   -796.36714   0.42458931   -796.31949   0.56634184    -796.4063   0.70973027   -796.61064   0.85430202   -796.85836            1    -797.0145 
224  0.024996592  0.010045246  0.015001598   0.01192137  0.075273801   0.40276378   0.69500184    3.9180729            0   -796.72227   0.14186475   -796.59929   0.28348836   -796.36716   0.42461306    -796.3195   0.56636874   -796.40636   0.70975047    -796.6107   0.85431365   -796.85842            1    -797.0145 
225  0.024750544 0.0099406737  0.014873315  0.011798641  0.075255303   0.40275343   0.69498954    3.9183632            0   -796.72227   0.14187163   -796.59931   0.28350334   -796.36719   0.42463772   -796.31952   0.56639679   -796.40641   0.70977162   -796.61075   0.85432587   -796.85848            1   -797.01451 
226  0.024495579 0.0098323898  0.014740169  0.011671633   0.07523686   0.40274277   0.69497686    3.9186637            0   -796.72228   0.14187871   -796.59933   0.28351879   -796.36722    0.4246633   -796.31953     0.566426   -796.40647   0.70979374   -796.61081   0.85433868   -796.85854            1   -797.01451 
227  0.024231806 0.0097204505  0.014602193  0.011540417  0.075218557   0.40273181   0.69496382    3.9189742            0   -796.72228   0.14188597   -796.59936    0.2835347   -796.36725   0.42468978   -796.31955   0.56645636   -796.40653   0.70981685   -796.61086    0.8543521   -796.85861            1   -797.01451 
228  0.023959336 0.0096049156  0.014459418  0.011405068  0.075200483   0.40272056   0.69495042    3.9192945            0   -796.72229   0.14189341   -796.59938   0.28355107   -796.36728   0.42471715   -796.31957   0.56648789   -796.40659   0.70984097   -796.61093   0.85436614   -796.85868            1   -797.01452 
229  0.023678286 0.0094858453  0.014311877  0.011265659  0.075182726   0.40270903   0.69493667    3.9196245            0   -796.72229   0.14190101   -796.59941   0.28356787   -796.36732   0.42474541   -796.31959   0.56652058   -796.40666    0.7098661   -796.61099   0.85438082   -796.85875            1   -797.01452 
230  0.023388777 0.0093633043  0.014159605  0.011122267  0.075165377   0.40269725    0.6949226    3.9199639            0    -796.7223   0.14190877   -796.59943   0.28358509   -796.36735   0.42477454    -796.3196   0.56655444   -796.40672   0.70989227   -796.61105   0.85439615   -796.85882            1   -797.01453 
231  0.023090932 0.0092373554  0.014002637  0.010974972   0.07514853    0.4026852   0.69490822    3.9203125            0   -796.72231   0.14191668   -796.59946   0.28360272   -796.36738   0.42480454   -796.31962   0.56658947   -796.40679   0.70991949   -796.61112   0.85441215    -796.8589            1   -797.01453 
232  0.022784885 0.0091080912  0.013841008  0.010823855  0.075132277   0.40267292   0.69489353    3.9206702            0   -796.72231   0.14192473   -796.59948   0.28362073   -796.36742   0.42483539   -796.31964   0.56662569   -796.40686   0.70994777   -796.61119   0.85442882   -796.85898            1   -797.01453 
233  0.022470783 0.0089756108  0.013674757  0.010668996  0.075116709    0.4026604   0.69487856    3.9210367            0   -796.72232    0.1419329   -796.59951   0.28363912   -796.36745   0.42486708   -796.31966   0.56666309   -796.40693   0.70997715   -796.61126   0.85444619   -796.85906            1   -797.01454 
234  0.022148739 0.0088399456   0.01350392  0.010510483  0.075101919   0.40264767   0.69486331    3.9214118            0   -796.72233   0.14194118   -796.59954   0.28365787   -796.36749   0.42489961   -796.31968   0.56670167   -796.40701   0.71000763   -796.61134   0.85446427   -796.85914            1   -797.01454 
235  0.021818892 0.0087011063  0.013328536  0.010348388   0.07508801   0.40263473    0.6948478    3.9217954            0   -796.72233   0.14194957   -796.59957   0.28367697   -796.36753   0.42493297    -796.3197   0.56674146   -796.40708   0.71003924   -796.61141   0.85448308   -796.85923            1   -797.01454 
236  0.021481391  0.008559335  0.013148645  0.010182802  0.075075081    0.4026216   0.69483204    3.9221871            0   -796.72234   0.14195806   -796.59959   0.28369638   -796.36757   0.42496714   -796.31972   0.56678244   -796.40716   0.71007199   -796.61149   0.85450263   -796.85932            1   -797.01455 
237  0.021136413 0.0084142661  0.012964286  0.010013823   0.07506323   0.40260828   0.69481606    3.9225867            0   -796.72234   0.14196662   -796.59962   0.28371611   -796.36761   0.42500212   -796.31974   0.56682463   -796.40724   0.71010591   -796.61158   0.85452295   -796.85941            1   -797.01455 
238  0.020784444 0.0082672447  0.012775502 0.0098415952  0.075052554   0.40259479   0.69479985    3.9229941            0   -796.72235   0.14197526   -796.59965   0.28373613   -796.36765   0.42503789   -796.31976   0.56686803   -796.40732   0.71014101   -796.61166   0.85454404    -796.8595            1   -797.01456 
239  0.020428879 0.0081145738  0.012582341 0.0096667527  0.075043164   0.40258114   0.69478344    3.9234088            0   -796.72236   0.14198395   -796.59968   0.28375643   -796.36769   0.42507445   -796.31978   0.56691266   -796.40741   0.71017732   -796.61175   0.85456594    -796.8596            1   -797.01456 
240  0.020106256 0.0079683138  0.012384903 0.0094952757  0.075035193   0.40256735   0.69476684    3.9238307            0   -796.72237    0.1419927   -796.59971   0.28377699   -796.36773   0.42511177    -796.3198   0.56695849    -796.4075   0.71021485   -796.61184   0.85458864    -796.8597            1   -797.01456 
241   0.02024589  0.007789038   0.01218396 0.0093962147  0.075029537   0.40255347   0.69475012    3.9242576            0   -796.72237   0.14200143   -796.59974    0.2837977   -796.36777   0.42514971   -796.31982   0.56700538   -796.40758   0.71025349   -796.61193   0.85461209    -796.8598            1   -797.01457 
242  0.025830027 0.0077165429  0.011988092  0.010098417   0.07503415   0.40254007   0.69473388    3.9246735            0   -796.72238   0.14200988   -796.59977   0.28381779   -796.36781   0.42518676   -796.31984   0.56705143   -796.40767   0.71029165   -796.61201   0.85463537    -796.8599            1   -797.01457 
243  0.039281144  0.010167786  0.011864115  0.011933928   0.07505826   0.40253162   0.69472347     3.924936            0   -796.72238   0.14201496   -796.59979   0.28383033   -796.36783   0.42521033   -796.31985   0.56708098   -796.40772   0.71031642   -796.61207   0.85465042   -796.85996            1   -797.01457 
244  0.030001734 0.0074700382  0.011850026  0.010546596  0.075039254   0.40253072   0.69472254    3.9249633            0   -796.72238   0.14201552   -796.59979   0.28383165   -796.36784   0.42521281   -796.31985   0.56708409   -796.40773   0.71031903   -796.61208   0.85465202   -796.85997            1   -797.01458 
245  0.022340068 0.0074892299  0.011830704 0.0095282726  0.075026924   0.40252945   0.69472112    3.9250025            0   -796.72238   0.14201631    -796.5998   0.28383353   -796.36784   0.42521633   -796.31985   0.56708852   -796.40774   0.71032273   -796.61209    0.8546543   -796.85998            1   -797.01458 
246   0.01963727 0.0074957958  0.011805524 0.0090718111  0.075021852   0.40252777   0.69471914    3.9250547            0   -796.72238   0.14201736    -796.5998   0.28383604   -796.36785   0.42522103   -796.31986   0.56709442   -796.40775   0.71032768    -796.6121   0.85465734   -796.85999            1   -797.01458 
247   0.01899586 0.0074860647  0.011775448 0.0089520419  0.075020531   0.40252575   0.69471671    3.9251175            0   -796.72239   0.14201861    -796.5998   0.28383905   -796.36785   0.42522668   -796.31986   0.56710153   -796.40776   0.71033364   -796.61211     0.854661   -796.86001            1   -797.01458 
248   0.01887265 0.0074646679  0.011741412 0.0089119032  0.075020061   0.40252347   0.69471396    3.9251885            0   -796.72239   0.14202001   -796.59981   0.28384246   -796.36786   0.42523308   -796.31986    0.5671096   -796.40778   0.71034041   -796.61213   0.85466516   -796.86003            1   -797.01458 
249  0.018800359 0.0074368791  0.011703635 0.0088778727  0.075019697   0.40252095   0.69471092    3.9252673            0   -796.72239   0.14202156   -796.59982   0.28384623   -796.36787   0.42524019   -796.31987   0.56711856   -796.40779   0.71034794   -796.61215   0.85466978   -796.86005            1   -797.01458 
250  0.018724192 0.0074053221  0.011662143 0.0088410891   0.07501937   0.40251818   0.69470758    3.9253537            0   -796.72239   0.14202326   -796.59982   0.28385036   -796.36788   0.42524799   -796.31987   0.56712842   -796.40781   0.71035623   -796.61217   0.85467488   -796.86007            1   -797.01458 
251  0.018641331 0.0073708245  0.011616947 0.0088010721  0.075019093   0.40251517   0.69470395    3.9254478            0   -796.72239    0.1420251   -796.59983   0.28385486   -796.36789   0.42525649   -796.31988   0.56713917   -796.40783   0.71036528   -796.61219   0.85468044   -796.86009            1   -797.01458 
[...]
2247 6.1518953e-05 4.104835e-05 2.6769859e-10 7.3151822e-11 4.4569653e-05   0.41006518   0.70216115    3.9170105            0   -796.72258   0.12870524   -796.62206    0.2574139   -796.41109   0.38612654   -796.31251   0.53957536   -796.38134   0.69303797   -796.58782   0.84651444   -796.84613            1   -797.01468 
2248 6.1164345e-05 4.0786859e-05 2.6635706e-10 7.2766363e-11 4.4271488e-05   0.41006518   0.70216115    3.9170108            0   -796.72258   0.12870531   -796.62206   0.25741403   -796.41109   0.38612669   -796.31251   0.53957558   -796.38134   0.69303818   -796.58782   0.84651457   -796.84613            1   -797.01468 
2249 6.0779645e-05 4.0503365e-05 2.649017e-10 7.2345205e-11 4.3948395e-05   0.41006518   0.70216115    3.9170112            0   -796.72258   0.12870539   -796.62206   0.25741416   -796.41109   0.38612685   -796.31251   0.53957582   -796.38134   0.69303841   -796.58782   0.84651471   -796.84613            1   -797.01468 
2250 6.0364965e-05   4.0198e-05 2.6333109e-10 7.1892627e-11 4.3600563e-05   0.41006518   0.70216115    3.9170116            0   -796.72258   0.12870548   -796.62206    0.2574143   -796.41109   0.38612703   -796.31251   0.53957607   -796.38134   0.69303865   -796.58782   0.84651486   -796.84613            1   -797.01468 
2251 5.9920429e-05 3.9870904e-05 2.616543e-10 7.1418228e-11 4.3228196e-05   0.41006518   0.70216115    3.9170121            0   -796.72258   0.12870557   -796.62206   0.25741446   -796.41109   0.38612722   -796.31251   0.53957635   -796.38134   0.69303892   -796.58782   0.84651502   -796.84613            1   -797.01468 
2252 5.944617e-05 3.9522231e-05 2.5986095e-10 7.0914564e-11 4.2831516e-05   0.41006518   0.70216115    3.9170125            0   -796.72258   0.12870567   -796.62206   0.25741462   -796.41109   0.38612741   -796.31251   0.53957664   -796.38134    0.6930392   -796.58783   0.84651519   -796.84613            1   -797.01468 
2253 5.8942329e-05 3.9152145e-05 2.5794463e-10 7.0346729e-11 4.2410758e-05   0.41006518   0.70216115     3.917013            0   -796.72258   0.12870577   -796.62206    0.2574148   -796.41109   0.38612763   -796.31251   0.53957695   -796.38134    0.6930395   -796.58783   0.84651537   -796.84614            1   -797.01468 
2254 5.8409058e-05 3.8760823e-05 2.5590728e-10 6.9776471e-11 4.1966176e-05   0.41006518   0.70216115    3.9170135            0   -796.72258   0.12870588   -796.62206   0.25741498   -796.41109   0.38612785   -796.31251   0.53957728   -796.38134   0.69303981   -796.58783   0.84651556   -796.84614            1   -797.01468 
2255 5.7846521e-05 3.834845e-05 2.5377545e-10 6.9167201e-11 4.1498037e-05   0.41006518   0.70216115    3.9170141            0   -796.72258   0.12870599   -796.62206   0.25741518   -796.41109   0.38612808   -796.31251   0.53957763   -796.38134   0.69304014   -796.58783   0.84651577   -796.84614            1   -797.01468 
2256 5.7254887e-05 3.7915226e-05 2.5153463e-10 6.8523485e-11 4.1006624e-05   0.41006518   0.70216115    3.9170147            0   -796.72258   0.12870611   -796.62206   0.25741538   -796.41109   0.38612833   -796.31251   0.53957799   -796.38134   0.69304049   -796.58783   0.84651598   -796.84614            1   -797.01468 
2257 5.663434e-05 3.7461359e-05 2.4917488e-10 6.7873027e-11 4.0492236e-05   0.41006518   0.70216115    3.9170153            0   -796.72258   0.12870624   -796.62206    0.2574156   -796.41109   0.38612859   -796.31251   0.53957837   -796.38134   0.69304086   -796.58783   0.84651621   -796.84614            1   -797.01468 
2258 5.5985068e-05 3.6987071e-05 2.4673004e-10 6.7201204e-11 3.9955188e-05   0.41006518   0.70216115    3.9170159            0   -796.72258   0.12870637   -796.62206   0.25741582   -796.41109   0.38612886   -796.31251   0.53957877   -796.38134   0.69304125   -796.58783   0.84651644   -796.84614            1   -797.01468 
2259 5.5307272e-05 3.6492593e-05 2.4416855e-10 6.6596518e-11 3.939581e-05   0.41006518   0.70216115    3.9170166            0   -796.72258   0.12870651   -796.62206   0.25741605   -796.41109   0.38612914   -796.31251   0.53957919   -796.38135   0.69304165   -796.58783   0.84651669   -796.84614            1   -797.01468 
2260 5.4601163e-05 3.597817e-05 2.4154275e-10 6.6349701e-11 3.8814447e-05   0.41006518   0.70216115    3.9170173            0   -796.72258   0.12870665   -796.62206   0.25741629   -796.41109   0.38612943   -796.31251   0.53957962   -796.38135   0.69304207   -796.58783   0.84651694   -796.84614            1   -797.01468 
2261 5.3866957e-05 3.5444054e-05 2.3903712e-10 6.782309e-11 3.821146e-05   0.41006518   0.70216115     3.917018            0   -796.72258    0.1287068   -796.62206   0.25741654   -796.41109   0.38612973   -796.31251   0.53958007   -796.38135    0.6930425   -796.58783   0.84651721   -796.84614            1   -797.01468 
2262 5.3104885e-05 3.4890513e-05 2.3749782e-10 7.7958298e-11 3.7587225e-05   0.41006518   0.70216115    3.9170187            0   -796.72258   0.12870695   -796.62206    0.2574168   -796.41109   0.38613005   -796.31251   0.53958054   -796.38135   0.69304295   -796.58783   0.84651748   -796.84614            1   -797.01468 
2263 5.2315182e-05 3.4317821e-05 2.4193401e-10 1.2425951e-10 3.6942132e-05   0.41006518   0.70216115    3.9170195            0   -796.72258   0.12870711   -796.62206   0.25741707   -796.41109   0.38613037   -796.31251   0.53958102   -796.38135   0.69304342   -796.58783   0.84651777   -796.84614            1   -797.01468 
2264 5.1498094e-05 3.3726277e-05 2.8201914e-10 2.8293241e-10 3.6276588e-05   0.41006518   0.70216115    3.9170203            0   -796.72258   0.12870727   -796.62206   0.25741735   -796.41109    0.3861307   -796.31251   0.53958152   -796.38135    0.6930439   -796.58783   0.84651807   -796.84614            1   -797.01468 
2265 5.0653878e-05 3.3116151e-05 4.9163405e-10 7.6408774e-10 3.5591014e-05   0.41006518   0.70216115    3.9170211            0   -796.72258   0.12870744   -796.62206   0.25741763   -796.41109   0.38613105   -796.31251   0.53958204   -796.38135    0.6930444   -796.58783   0.84651837   -796.84614            1   -797.01468 
2266 4.9782793e-05 3.2487839e-05 1.2656225e-09 2.2433042e-09 3.4885847e-05   0.41006518   0.70216115    3.9170219            0   -796.72258   0.12870761   -796.62206   0.25741793   -796.41109    0.3861314   -796.31251   0.53958257   -796.38135   0.69304492   -796.58783   0.84651869   -796.84614            1   -797.01468 
2267 4.8885131e-05 3.1841408e-05 3.8053926e-09 7.0307435e-09 3.4161546e-05   0.41006518   0.70216115    3.9170228            0   -796.72258   0.12870779   -796.62206   0.25741823   -796.41109   0.38613176   -796.31251   0.53958312   -796.38135   0.69304545   -796.58783   0.84651901   -796.84614            1   -797.01468 
2268 4.7961165e-05 3.1178063e-05 1.2347738e-08 2.3427954e-08 3.341865e-05   0.41006518   0.70216115    3.9170237            0   -796.72258   0.12870797   -796.62206   0.25741854   -796.41109   0.38613213   -796.31251   0.53958368   -796.38135     0.693046   -796.58783   0.84651935   -796.84614            1   -797.01468 
2269 4.701204e-05 3.0495401e-05    4.266e-08 8.282353e-08 3.2658692e-05   0.41006518   0.70216115    3.9170246            0   -796.72258   0.12870816   -796.62206   0.25741885   -796.41109   0.38613251   -796.31251   0.53958426   -796.38135   0.69304656   -796.58784   0.84651969   -796.84614            1   -797.01468 
2270 4.6047059e-05 2.9808499e-05 1.5548109e-07  3.08257e-07 3.1897479e-05   0.41006518   0.70216115    3.9170255            0   -796.72258   0.12870835   -796.62206   0.25741918   -796.41109    0.3861329   -796.31251   0.53958484   -796.38135   0.69304713   -796.58784   0.84652005   -796.84614            1   -797.01468 
2271 9.6506162e-05 2.9130026e-05 5.400559e-07 1.091998e-06 3.133889e-05   0.41006518   0.70216115    3.9170264            0   -796.72258   0.12870853   -796.62206   0.25741948   -796.41109   0.38613326   -796.31251    0.5395854   -796.38135   0.69304767   -796.58784   0.84652038   -796.84614            1   -797.01468 
2272 8.1886512e-05 2.891699e-05 4.044097e-07 8.4470649e-07 3.0993486e-05   0.41006518   0.70216115    3.9170267            0   -796.72258    0.1287086   -796.62206   0.25741959   -796.41109    0.3861334   -796.31251   0.53958561   -796.38135   0.69304788   -796.58784   0.84652051   -796.84614            1   -797.01468 
2273 6.538161e-05 2.8881854e-05 3.1457875e-07 6.546683e-07 3.0912511e-05   0.41006518   0.70216115    3.9170267            0   -796.72258   0.12870861   -796.62206   0.25741961   -796.41109   0.38613342   -796.31251   0.53958564   -796.38135   0.69304791   -796.58784   0.84652052   -796.84614            1   -797.01468 
2274 4.7456144e-05 2.882998e-05 2.0875112e-07 4.3155364e-07 3.0820606e-05   0.41006518   0.70216115    3.9170268            0   -796.72258   0.12870862   -796.62206   0.25741963   -796.41109   0.38613344   -796.31251   0.53958568   -796.38135   0.69304794   -796.58784   0.84652055   -796.84614            1   -797.01468 
2275 4.4576026e-05 2.875994e-05 1.1097026e-07 2.2668068e-07 3.0725536e-05   0.41006518   0.70216115    3.9170269            0   -796.72258   0.12870864   -796.62206   0.25741966   -796.41109   0.38613348   -796.31251   0.53958573   -796.38135     0.693048   -796.58784   0.84652058   -796.84614            1   -797.01468 
2276 4.4454495e-05 2.8672916e-05 4.4482639e-08 8.8926617e-08 3.0624829e-05   0.41006518   0.70216115     3.917027            0   -796.72258   0.12870866   -796.62206    0.2574197   -796.41109   0.38613353   -796.31251   0.53958581   -796.38135   0.69304807   -796.58784   0.84652062   -796.84614            1   -797.01468 
2277 4.4311963e-05 2.8570666e-05 1.254192e-08 2.4070822e-08 3.0511386e-05   0.41006518   0.70216115    3.9170271            0   -796.72258   0.12870869   -796.62206   0.25741975   -796.41109   0.38613358   -796.31251   0.53958589   -796.38135   0.69304815   -796.58784   0.84652068   -796.84615            1   -797.01468 
2278 4.4147456e-05 2.8453408e-05 2.135922e-09 3.7161053e-09 3.0381412e-05   0.41006518   0.70216115    3.9170273            0   -796.72258   0.12870872   -796.62206    0.2574198   -796.41109   0.38613365   -796.31251   0.53958599   -796.38135   0.69304825   -796.58784   0.84652074   -796.84615            1   -797.01468 
2279 4.3960815e-05 2.8320764e-05 2.4463609e-10 1.6684281e-10 3.0234135e-05   0.41006518   0.70216115    3.9170275            0   -796.72258   0.12870876   -796.62206   0.25741986   -796.41109   0.38613372   -796.31251    0.5395861   -796.38135   0.69304836   -796.58784    0.8465208   -796.84615            1   -797.01468 
2280 4.3752091e-05 2.8172558e-05 1.9992771e-10 5.497531e-11 3.0069561e-05   0.41006518   0.70216115    3.9170277            0   -796.72258    0.1287088   -796.62206   0.25741993   -796.41109    0.3861338   -796.31251   0.53958623   -796.38135   0.69304849   -796.58784   0.84652088   -796.84615            1   -797.01468 
2281 4.3521352e-05 2.8008805e-05 1.9889739e-10 5.3607611e-11 2.9887785e-05   0.41006518   0.70216115    3.9170279            0   -796.72258   0.12870884   -796.62206   0.25742001   -796.41109    0.3861339   -796.31251   0.53958637   -796.38135   0.69304862   -796.58784   0.84652096   -796.84615            1   -797.01468 
2282 4.3268671e-05 2.7829584e-05 1.9792026e-10 5.3277889e-11 2.9688913e-05   0.41006518   0.70216115    3.9170281            0   -796.72258   0.12870889   -796.62206   0.25742009   -796.41109   0.38613399   -796.31251   0.53958652   -796.38135   0.69304877   -796.58784   0.84652106   -796.84615            1   -797.01468 
2283 4.299413e-05 2.7634982e-05 1.9684083e-10 5.2986563e-11 2.9473063e-05   0.41006518   0.70216115    3.9170284            0   -796.72258   0.12870894   -796.62206   0.25742018   -796.41109    0.3861341   -796.31251   0.53958669   -796.38135   0.69304893   -796.58784   0.84652116   -796.84615            1   -797.01468 
2284 4.2697818e-05 2.7425095e-05 1.9569563e-10 5.2664858e-11 2.9240363e-05   0.41006518   0.70216115    3.9170287            0   -796.72258     0.128709   -796.62206   0.25742028   -796.41109   0.38613422   -796.31251   0.53958687   -796.38135   0.69304911   -796.58784   0.84652126   -796.84615            1   -797.01468 
2285 4.2379833e-05 2.7200026e-05 1.9446707e-10 5.2303433e-11 2.8990952e-05   0.41006518   0.70216115    3.9170289            0   -796.72258   0.12870906   -796.62206   0.25742038   -796.41109   0.38613434   -796.31251   0.53958706   -796.38135    0.6930493   -796.58784   0.84652138   -796.84615            1   -797.01468 
2286 4.204028e-05 2.6959888e-05 1.9314672e-10 5.1920941e-11 2.8724982e-05   0.41006518   0.70216115    3.9170293            0   -796.72258   0.12870913   -796.62206   0.25742049   -796.41109   0.38613448   -796.31251   0.53958726   -796.38135    0.6930495   -796.58784    0.8465215   -796.84615            1   -797.01468 
2287 4.1679272e-05  2.67048e-05 1.9172986e-10 5.1541298e-11 2.8442614e-05   0.41006518   0.70216115    3.9170296            0   -796.72258    0.1287092   -796.62206   0.25742061   -796.41109   0.38613462   -796.31251   0.53958748   -796.38135   0.69304971   -796.58784   0.84652164   -796.84615            1   -797.01468 
2288 4.129693e-05 2.6434892e-05 1.9026234e-10 5.112718e-11 2.8144019e-05   0.41006518   0.70216115      3.91703            0   -796.72258   0.12870927   -796.62206   0.25742073   -796.41109   0.38613476   -796.31251   0.53958771   -796.38135   0.69304994   -796.58784   0.84652178   -796.84615            1   -797.01468 
2289 4.0893383e-05 2.6150301e-05 1.886744e-10 5.0679749e-11 2.7829381e-05   0.41006518   0.70216115    3.9170303            0   -796.72258   0.12870935   -796.62206   0.25742086   -796.41109   0.38613492   -796.31251   0.53958795   -796.38135   0.69305018   -796.58784   0.84652192   -796.84615            1   -797.01468 
2290 4.0468767e-05 2.5851171e-05 1.8702693e-10 5.0206977e-11 2.7498894e-05   0.41006518   0.70216115    3.9170307            0   -796.72258   0.12870943   -796.62206     0.257421   -796.41109   0.38613509   -796.31251   0.53958821   -796.38135   0.69305043   -796.58784   0.84652208   -796.84615            1   -797.01468 
2291 4.0023226e-05 2.5537658e-05 1.8529894e-10 4.9733117e-11 2.7152763e-05   0.41006518   0.70216115    3.9170311            0   -796.72258   0.12870951   -796.62206   0.25742114   -796.41109   0.38613526   -796.31251   0.53958848   -796.38135   0.69305069   -796.58784   0.84652224   -796.84615            1   -797.01468 
2292 3.9556911e-05 2.5209922e-05 1.8349771e-10 4.9257724e-11 2.6791203e-05   0.41006518   0.70216115    3.9170316            0   -796.72258    0.1287096   -796.62206   0.25742129   -796.41109   0.38613544   -796.31251   0.53958876   -796.38135   0.69305097   -796.58784   0.84652241   -796.84615            1   -797.01468 
2293 3.9069983e-05 2.4868134e-05 1.816308e-10 4.8839481e-11 2.641444e-05   0.41006518   0.70216115     3.917032            0   -796.72258   0.12870969   -796.62206   0.25742145   -796.41109   0.38613563   -796.31251   0.53958905   -796.38135   0.69305125   -796.58784   0.84652259   -796.84615            1   -797.01468 
2294 3.8562607e-05 2.4512473e-05 1.7979327e-10 4.873219e-11 2.6022711e-05   0.41006518   0.70216115    3.9170325            0   -796.72258   0.12870979   -796.62206   0.25742161   -796.41109   0.38613582   -796.31251   0.53958935   -796.38135   0.69305155   -796.58784   0.84652277   -796.84615            1   -797.01468 
2295 3.8034959e-05 2.4143124e-05 1.7834658e-10 5.0039937e-11 2.5616264e-05   0.41006518   0.70216115     3.917033            0   -796.72258   0.12870989   -796.62206   0.25742178   -796.41109   0.38613602   -796.31251   0.53958967   -796.38135   0.69305186   -796.58784   0.84652297   -796.84615            1   -797.01468 
2296 3.7487218e-05 2.3760285e-05 1.7958431e-10 5.8223746e-11 2.5195355e-05   0.41006518   0.70216115    3.9170335            0   -796.72258   0.12870999   -796.62206   0.25742196   -796.41109   0.38613623   -796.31251      0.53959   -796.38135   0.69305219   -796.58784   0.84652317   -796.84615            1   -797.01468 
2297 3.6919575e-05 2.3364157e-05 1.9679378e-10 9.4276878e-11 2.4760254e-05   0.41006518   0.70216115     3.917034            0   -796.72258    0.1287101   -796.62206   0.25742214   -796.41109   0.38613645   -796.31251   0.53959034   -796.38135   0.69305252   -796.58784   0.84652337   -796.84615            1   -797.01468 
2298 3.6332224e-05 2.2954955e-05 2.9733563e-10 2.1542979e-10 2.4311238e-05   0.41006518   0.70216115    3.9170345            0   -796.72258   0.12871021   -796.62206   0.25742232   -796.41109   0.38613667   -796.31251   0.53959069   -796.38136   0.69305287   -796.58784   0.84652359   -796.84615            1   -797.01468 
2299 3.572537e-05 2.2532887e-05 6.9960668e-10  5.80935e-10 2.3848599e-05   0.41006518   0.70216115    3.9170351            0   -796.72258   0.12871033   -796.62206   0.25742252   -796.41109    0.3861369   -796.31251   0.53959105   -796.38136   0.69305323   -796.58784   0.84652381   -796.84615            1   -797.01468 
2300 3.5099217e-05 2.2098219e-05 2.0316304e-09 1.7053798e-09 2.3372632e-05   0.41006518   0.70216115    3.9170356            0   -796.72258   0.12871044   -796.62206   0.25742272   -796.41109   0.38613714   -796.31251   0.53959142   -796.38136    0.6930536   -796.58785   0.84652404   -796.84615            1   -797.01468 
2301 3.4454004e-05 2.1651079e-05 6.440636e-09 5.3564156e-09 2.2883661e-05   0.41006518   0.70216115    3.9170362            0   -796.72258   0.12871056   -796.62206   0.25742292   -796.41109   0.38613738   -796.31251   0.53959181   -796.38136   0.69305398   -796.58785   0.84652428   -796.84615            1   -797.01468 
2302 3.3789908e-05 2.1218272e-05 2.1788723e-08 1.7926692e-08 2.238199e-05   0.41006518   0.70216115    3.9170368            0   -796.72258   0.12871069   -796.62206   0.25742313   -796.41109   0.38613763   -796.31251    0.5395922   -796.38136   0.69305437   -796.58785   0.84652452   -796.84615            1   -797.01468 
2303 3.3107755e-05 2.0820215e-05 7.8339821e-08 6.3808875e-08 2.186842e-05   0.41006518   0.70216115    3.9170374            0   -796.72258   0.12871081   -796.62206   0.25742334   -796.41109   0.38613789   -796.31251   0.53959261   -796.38136   0.69305477   -796.58785   0.84652477   -796.84615            1   -797.01468 
2304 3.2411837e-05 2.0412026e-05 2.9886009e-07 2.4120094e-07 2.1347724e-05   0.41006518   0.70216115    3.9170381            0   -796.72258   0.12871094   -796.62206   0.25742356   -796.41109   0.38613815   -796.31251   0.53959302   -796.38136   0.69305519   -796.58785   0.84652503   -796.84615            1   -797.01468 
2305 3.178901e-05 1.9986623e-05 1.2064674e-06  9.65602e-07 2.0903366e-05   0.41006518   0.70216115    3.9170387            0   -796.72258   0.12871108   -796.62206   0.25742378   -796.41109   0.38613841   -796.31251   0.53959345   -796.38136   0.69305561   -796.58785   0.84652529   -796.84615            1   -797.01468 
2306 3.6043353e-05 1.9588087e-05 5.0037868e-06 3.9743072e-06 2.1877254e-05   0.41006518   0.70216115    3.9170393            0   -796.72258   0.12871121   -796.62206     0.257424   -796.41109   0.38613868   -796.31251   0.53959387   -796.38136   0.69305604   -796.58785   0.84652555   -796.84615            1   -797.01468 
2307 7.0636927e-05 2.2076716e-05 1.3006542e-05 1.0250021e-05 2.9005127e-05   0.41006518   0.70216115    3.9170398            0   -796.72258    0.1287113   -796.62206   0.25742416   -796.41109   0.38613886   -796.31251   0.53959416   -796.38136   0.69305633   -796.58785   0.84652574   -796.84615            1   -797.01468 
2308 6.8685627e-05 2.1417702e-05 1.2623887e-05 9.9500475e-06 2.8559666e-05   0.41006518   0.70216115    3.9170398            0   -796.72258    0.1287113   -796.62206   0.25742416   -796.41109   0.38613886   -796.31251   0.53959417   -796.38136   0.69305633   -796.58785   0.84652574   -796.84615            1   -797.01468 
