LAMMPS (12 Dec 2018)
Processor partition = 4
units         metal
atom_style    atomic
neighbor      1.0 bin
neigh_modify  every 1 delay 0 check yes

boundary        p p p
atom_modify map array sort 0 0.0
variable	u uloop 8

read_data   initial.lammps
  orthogonal box = (0 0 0) to (10.0025 12.3537 10.615)
  2 by 4 by 2 MPI processor grid
  reading atoms ...
  127 atoms
pair_style  nnp3v
pair_coeff  * * lammps-force.nnp Li P O
Reading potential file lammps-force.nnp with DATE: 20201105
min_style   quickmin
minimize    1.0e-6 1.0e-4 1000 10000
Neighbor list info ...
  update every 1 steps, delay 0 steps, check yes
  max neighbors/atom: 2000, page size: 100000
  master list distance cutoff = 8
  ghost atom cutoff = 8
  binsize = 4, bins = 3 4 3
  1 neighbor lists, perpetual/occasional/extra = 1 0 0
  (1) pair nnp3v, perpetual
      attributes: full, newton on
      pair build: full/bin/atomonly
      stencil: full/bin/3d
      bin: standard
Per MPI rank memory allocation (min/avg/max) = 2.736 | 2.736 | 2.736 Mbytes
Step Temp E_pair E_mol TotEng Press 
       0            0   -796.68047            0   -796.68047     13401.66 
       6  0.092325754   -796.68154            0   -796.68004    13408.421 
Loop time of 2.26724 on 16 procs for 6 steps with 127 atoms

98.7% CPU use with 16 MPI tasks x no OpenMP threads

Minimization stats:
  Stopping criterion = energy tolerance
  Energy initial, next-to-last, final = 
        -796.680469343     -796.681189813     -796.681544239
  Force two-norm initial, final = 0.292034 0.283352
  Force max component initial, final = 0.0445202 0.0435203
  Final line search alpha, max atom move = 0 0
  Iterations, force evaluations = 6 6

MPI task timing breakdown:
Section |  min time  |  avg time  |  max time  |%varavg| %total
---------------------------------------------------------------
Pair    | 1.8997     | 2.1617     | 2.2647     |   5.4 | 95.35
Neigh   | 0          | 0          | 0          |   0.0 |  0.00
Comm    | 0.0020888  | 0.1051     | 0.36715    |  24.5 |  4.64
Output  | 0          | 0          | 0          |   0.0 |  0.00
Modify  | 0          | 0          | 0          |   0.0 |  0.00
Other   |            | 0.0004265  |            |       |  0.02

Nlocal:    7.9375 ave 8 max 7 min
Histogram: 1 0 0 0 0 0 0 0 0 15
Nghost:    819.812 ave 824 max 816 min
Histogram: 4 0 0 0 0 8 0 1 1 2
Neighs:    0 ave 0 max 0 min
Histogram: 16 0 0 0 0 0 0 0 0 0
FullNghs:  1602 ave 1623 max 1420 min
Histogram: 1 0 0 0 0 0 0 0 1 14

Total # of neighbors = 25632
Ave neighs/atom = 201.827
Neighbor list builds = 0
Dangerous builds = 0

reset_timestep	0

#timestep   0.001
#velocity   all create 1000 87287

dump   1 all atom 1 dump.neb.$u
dump   1 all atom 1 dump.neb.5
fix    2 all neb 1.0 parallel neigh
dump   2 all atom 1 test.dump

thermo          1
neb 0.00000000001 0.0 10000 5000 1 final final.lammps
Per MPI rank memory allocation (min/avg/max) = 4.736 | 4.737 | 4.737 Mbytes
Step Temp E_pair E_mol TotEng Press 
       0            0   -793.25154            0   -793.25154    20554.724 
       1    13.051909   -793.25154            0   -793.03897    20727.826 
       2    53.115642   -793.63888            0    -792.7738    20865.391 
       3    110.36775   -794.25832            0   -792.46078    20882.317 
       4    157.98873   -794.85895            0   -792.28582    20660.013 
       5    180.06665   -795.30481            0   -792.37211    20006.631 
       6    181.46342   -795.60478            0   -792.64933    18817.005 
       7    154.63827   -795.80488            0   -793.28632    17225.292 
       8    145.91818    -795.9447            0   -793.56816    16203.019 
       9    142.66292   -796.04658            0   -793.72306    15778.569 
      10    137.07006   -796.12146            0   -793.88903    15423.536 
      11    99.107352   -796.16586            0   -794.55172    14991.709 
      12     1.462278   -796.17069            0   -796.14688    13651.346 
      13    1.8490613   -796.17592            0    -796.1458    13614.454 
      14    2.4439478   -796.18202            0   -796.14222    13592.161 
      15    3.0173641   -796.18878            0   -796.13963    13585.361 
      16    3.5909556   -796.19596            0   -796.13748    13584.507 
      17    4.1929049    -796.2035            0   -796.13521    13585.589 
      18    4.8248408   -796.21133            0   -796.13275      13588.1 
      19    5.4821848   -796.21938            0   -796.13009    13591.759 
      20    6.1608167   -796.22759            0   -796.12725    13596.342 
      21    6.8570854    -796.2359            0   -796.12422    13601.751 
      22    7.5672661   -796.24426            0   -796.12102     13607.83 
      23    8.2876827   -796.25264            0   -796.11766    13614.413 
      24    9.0144649   -796.26098            0   -796.11416    13621.292 
      25    9.7435693   -796.26925            0   -796.11055    13628.272 
      26    10.470643   -796.27741            0   -796.10688    13635.109 
      27    11.191071   -796.28545            0   -796.10318    13641.515 
      28    11.899613   -796.29332            0   -796.09951    13647.232 
      29    12.591351     -796.301            0   -796.09593    13652.043 
      30    13.260094   -796.30847            0   -796.09251    13655.695 
      31    13.903126    -796.3157            0   -796.08926     13658.24 
      32    14.504161   -796.32266            0   -796.08644    13658.718 
      33    15.072979   -796.32934            0   -796.08385     13659.63 
      34    15.162348   -796.33562            0   -796.08867    13645.162 
      35    10.472563   -796.34015            0   -796.16959    13598.674 
      36  0.095875071   -796.34055            0   -796.33899    13454.738 
      37   0.14607627   -796.34105            0   -796.33867    13448.803 
      38   0.22323013   -796.34168            0   -796.33805    13444.201 
      39   0.30141992   -796.34242            0   -796.33752     13441.81 
      40   0.36718707   -796.34324            0   -796.33726    13440.603 
      41   0.43484848   -796.34413            0   -796.33705    13439.663 
      42   0.50683728   -796.34508            0   -796.33683    13438.656 
      43   0.58327437    -796.3461            0    -796.3366    13437.525 
      44   0.66395877   -796.34717            0   -796.33636    13436.267 
      45   0.74859343    -796.3483            0   -796.33611    13434.877 
      46   0.83686018   -796.34948            0   -796.33585     13433.35 
      47   0.92842663   -796.35071            0   -796.33559     13431.68 
      48    1.0229451   -796.35198            0   -796.33532    13429.857 
      49    1.1200554   -796.35329            0   -796.33505    13427.874 
      50    1.2193851   -796.35463            0   -796.33477    13425.725 
      51    1.3205542   -796.35601            0    -796.3345    13423.406 
      52    1.4231683   -796.35741            0   -796.33423    13420.914 
      53    1.5268263   -796.35883            0   -796.33396    13418.244 
      54    1.6311259   -796.36026            0    -796.3337    13415.392 
      55    1.7356611   -796.36172            0   -796.33345    13412.354 
      56    1.8400219   -796.36318            0   -796.33321    13409.128 
      57    1.9437974   -796.36464            0   -796.33298    13405.708 
      58    2.0465836   -796.36611            0   -796.33278    13402.095 
      59    2.1479834   -796.36758            0   -796.33259    13398.288 
      60    2.2476221   -796.36904            0   -796.33243    13394.285 
      61    2.3450695   -796.37049            0    -796.3323    13390.084 
      62     2.440042   -796.37194            0    -796.3322    13385.717 
      63    2.5319751   -796.37337            0   -796.33213    13381.083 
      64    2.6212566   -796.37478            0   -796.33209    13376.498 
      65    2.7054863   -796.37617            0   -796.33211    13370.981 
      66    2.7969977   -796.37754            0   -796.33199    13368.146 
      67    2.9302121   -796.37882            0    -796.3311    13355.605 
      68    3.8086957   -796.37934            0   -796.31731    13391.057 
      69   0.62383455   -796.38008            0   -796.36992     13331.31 
      70    0.2211796   -796.38039            0   -796.37678    13318.385 
      71   0.13305344   -796.38065            0   -796.37848    13316.379 
      72    0.1519721   -796.38093            0   -796.37846    13315.295 
      73   0.17234476   -796.38123            0   -796.37843    13314.132 
      74   0.19371226   -796.38155            0    -796.3784    13312.848 
      75   0.21604863   -796.38188            0   -796.37837    13311.477 
      76   0.23927736   -796.38223            0   -796.37834    13310.018 
      77   0.26333834    -796.3826            0   -796.37831    13308.482 
      78   0.28815988   -796.38297            0   -796.37828    13306.866 
      79   0.31367445   -796.38337            0   -796.37826    13305.172 
      80   0.33980785   -796.38377            0   -796.37824    13303.398 
      81   0.36648932   -796.38419            0   -796.37822    13301.551 
      82   0.39364285   -796.38462            0    -796.3782    13299.628 
      83    0.4211962   -796.38505            0   -796.37819    13297.634 
      84   0.44907075    -796.3855            0   -796.37819    13295.567 
      85   0.47719618   -796.38596            0   -796.37819    13293.434 
      86   0.50548922   -796.38643            0    -796.3782    13291.226 
      87   0.53388806    -796.3869            0   -796.37821    13288.961 
      88   0.56229457   -796.38739            0   -796.37823    13286.613 
      89   0.59068387   -796.38787            0   -796.37825    13284.244 
      90   0.61888331   -796.38837            0   -796.37829    13281.718 
      91   0.64706083   -796.38887            0   -796.37833    13279.364 
      92   0.67467831   -796.38937            0   -796.37839    13276.369 
      93   0.70369301   -796.38988            0   -796.37842    13274.948 
      94   0.73613945   -796.39038            0   -796.37839    13268.932 
      95   0.81656958   -796.39079            0   -796.37749    13277.077 
      96   0.58277407   -796.39103            0   -796.38154     13258.41 
      97   0.05010239   -796.39115            0   -796.39033      13254.7 
      98  0.034852193   -796.39124            0   -796.39067    13256.199 
      99  0.031546763   -796.39134            0   -796.39083    13256.324 
     100  0.036574089   -796.39144            0   -796.39085     13255.92 
     101  0.043095998   -796.39156            0   -796.39086    13255.343 
     102  0.050156146   -796.39168            0   -796.39087    13254.696 
     103  0.057692159   -796.39182            0   -796.39088    13253.994 
     104  0.065685258   -796.39196            0   -796.39089    13253.239 
     105  0.074116974   -796.39211            0   -796.39091    13252.434 
     106  0.082967818   -796.39227            0   -796.39092    13251.578 
     107  0.092217322   -796.39244            0   -796.39094    13250.673 
     108   0.10184415   -796.39262            0   -796.39096     13249.72 
     109   0.11182637   -796.39281            0   -796.39098     13248.72 
     110   0.12214113     -796.393            0   -796.39101    13247.674 
     111     0.132765    -796.3932            0   -796.39104     13246.58 
     112   0.14367381   -796.39341            0   -796.39107    13245.442 
     113   0.15484313   -796.39363            0    -796.3911    13244.258 
     114   0.16624812   -796.39385            0   -796.39114     13243.03 
     115   0.17786345   -796.39408            0   -796.39118     13241.76 
     116   0.18966384   -796.39431            0   -796.39122    13240.448 
     117   0.20162363   -796.39456            0   -796.39127    13239.096 
     118   0.21371763    -796.3948            0   -796.39132    13237.703 
     119   0.22591938   -796.39506            0   -796.39138    13236.271 
     120   0.23820308   -796.39532            0   -796.39144      13234.8 
     121   0.25054309   -796.39558            0    -796.3915    13233.292 
     122   0.26291424   -796.39585            0   -796.39157    13231.749 
     123   0.27529116   -796.39613            0   -796.39165    13230.173 
     124   0.28764983   -796.39641            0   -796.39173    13228.563 
     125   0.29996439    -796.3967            0   -796.39181    13226.923 
     126    0.3122128   -796.39698            0    -796.3919    13225.249 
     127   0.32434364   -796.39728            0     -796.392    13223.554 
     128   0.33619981   -796.39758            0    -796.3921    13221.803 
     129   0.34592294   -796.39788            0   -796.39224    13220.083 
     130   0.33447409   -796.39817            0   -796.39272    13217.858 
     131   0.17032433   -796.39837            0    -796.3956    13214.867 
     132  0.004560578    -796.3984            0   -796.39833    13212.321 
     133 0.0083594479   -796.39845            0   -796.39831    13211.981 
     134  0.011907587    -796.3985            0   -796.39831     13211.65 
     135  0.014464249   -796.39856            0   -796.39832    13211.309 
     136  0.017059661   -796.39862            0   -796.39834    13210.945 
     137   0.01984758   -796.39869            0   -796.39836    13210.551 
     138  0.022826865   -796.39876            0   -796.39839    13210.126 
     139   0.02599168   -796.39884            0   -796.39842    13209.672 
     140  0.029336013   -796.39892            0   -796.39844    13209.187 
     141  0.032853491   -796.39901            0   -796.39847    13208.674 
     142  0.036537448    -796.3991            0   -796.39851    13208.131 
     143   0.04038088    -796.3992            0   -796.39854     13207.56 
     144  0.044376512    -796.3993            0   -796.39858     13206.96 
     145  0.048516798   -796.39941            0   -796.39862    13206.332 
     146  0.052793956   -796.39952            0   -796.39866    13205.677 
     147  0.057199972   -796.39964            0   -796.39871    13204.995 
     148  0.061726623   -796.39976            0   -796.39876    13204.286 
     149  0.066365503   -796.39989            0   -796.39881    13203.551 
     150  0.071108039   -796.40002            0   -796.39886     13202.79 
     151  0.075945526   -796.40015            0   -796.39891    13202.003 
     152  0.080869181   -796.40029            0   -796.39897    13201.191 
     153  0.085870111   -796.40043            0   -796.39903    13200.355 
     154  0.090939183   -796.40058            0    -796.3991    13199.495 
     155  0.096067457   -796.40073            0   -796.39917    13198.613 
     156   0.10124565   -796.40089            0   -796.39924    13197.707 
     157   0.10646453   -796.40104            0   -796.39931     13196.78 
     158   0.11171473   -796.40121            0   -796.39939    13195.831 
     159   0.11698829   -796.40137            0   -796.39947    13194.862 
     160   0.12227427   -796.40154            0   -796.39955    13193.874 
     161   0.12756794   -796.40171            0   -796.39964    13192.861 
     162   0.13285084   -796.40189            0   -796.39973    13191.841 
     163   0.13813785   -796.40207            0   -796.39982    13190.768 
     164   0.14335804   -796.40225            0   -796.39992    13189.788 
     165   0.14870179   -796.40244            0   -796.40002    13188.425 
     166   0.15390131   -796.40263            0   -796.40012    13188.346 
     167   0.16391595    -796.4028            0   -796.40013    13183.877 
     168   0.11641721   -796.40288            0   -796.40099    13188.925 
     169 0.0024155694    -796.4029            0   -796.40286    13186.514 
     170 0.0030268367   -796.40292            0   -796.40287    13185.532 
     171  0.003210486   -796.40294            0   -796.40288    13184.622 
     172 0.0031889583   -796.40296            0   -796.40291    13183.943 
     173 0.0034832553   -796.40298            0   -796.40293    13183.516 
     174 0.0041590508   -796.40301            0   -796.40295    13183.246 
     175 0.0050306487   -796.40305            0   -796.40296    13183.035 
     176 0.0060068486   -796.40308            0   -796.40298    13182.829 
     177 0.0070675392   -796.40312            0     -796.403    13182.609 
     178 0.0082088107   -796.40316            0   -796.40303    13182.371 
     179 0.0094285302   -796.40321            0   -796.40305    13182.114 
     180  0.010724641   -796.40326            0   -796.40308    13181.839 
     181  0.012095004   -796.40331            0   -796.40311    13181.547 
     182  0.013537362   -796.40336            0   -796.40314    13181.236 
     183  0.015049345   -796.40342            0   -796.40317    13180.909 
     184  0.016628464   -796.40348            0   -796.40321    13180.564 
     185  0.018272123   -796.40354            0   -796.40325    13180.202 
     186  0.019977623   -796.40361            0   -796.40329    13179.823 
     187  0.021742172   -796.40368            0   -796.40333    13179.427 
     188  0.023562881   -796.40375            0   -796.40337    13179.016 
     189  0.025436774   -796.40383            0   -796.40342    13178.588 
     190   0.02736081   -796.40391            0   -796.40346    13178.144 
     191  0.029331858   -796.40399            0   -796.40351    13177.685 
     192  0.031346726   -796.40408            0   -796.40357    13177.211 
     193  0.033402164   -796.40416            0   -796.40362    13176.722 
     194  0.035494866   -796.40425            0   -796.40368    13176.218 
     195  0.037621485   -796.40435            0   -796.40373    13175.699 
     196  0.039778742   -796.40444            0    -796.4038    13175.166 
     197  0.041963091   -796.40454            0   -796.40386    13174.619 
     198  0.044171185   -796.40464            0   -796.40392    13174.058 
     199  0.046399332   -796.40475            0   -796.40399    13173.485 
     200  0.048644487   -796.40486            0   -796.40406    13172.899 
     201   0.05090224   -796.40497            0   -796.40414    13172.301 
     202  0.053171142   -796.40508            0   -796.40421    13171.692 
     203  0.055442673   -796.40519            0   -796.40429     13171.07 
     204   0.05772389   -796.40531            0   -796.40437    13170.441 
     205  0.059961846   -796.40543            0   -796.40445    13169.788 
     206   0.06205216   -796.40555            0   -796.40454    13169.173 
     207   0.06144938   -796.40567            0   -796.40467    13168.351 
     208  0.039272476   -796.40576            0   -796.40513    13167.952 
     209 0.0017423902   -796.40578            0   -796.40575    13167.196 
     210  0.002434232    -796.4058            0   -796.40576    13166.984 
     211 0.0028527946   -796.40583            0   -796.40578    13166.837 
     212 0.0033431299   -796.40586            0    -796.4058    13166.696 
     213 0.0038750017   -796.40588            0   -796.40582    13166.543 
     214 0.0044424849   -796.40592            0   -796.40584    13166.378 
     215 0.0050451923   -796.40595            0   -796.40587    13166.202 
     216 0.0056822807   -796.40599            0   -796.40589    13166.014 
     217 0.0063527916   -796.40603            0   -796.40592    13165.816 
     218 0.0070557201   -796.40607            0   -796.40595    13165.607 
     219 0.0077900022   -796.40611            0   -796.40598    13165.387 
     220 0.0085545303   -796.40615            0   -796.40601    13165.156 
     221 0.0093481515    -796.4062            0   -796.40605    13164.915 
     222  0.010169671   -796.40625            0   -796.40608    13164.663 
     223  0.011017849    -796.4063            0   -796.40612    13164.401 
     224  0.011891409   -796.40636            0   -796.40616    13164.129 
     225  0.012789039   -796.40641            0    -796.4062    13163.848 
     226   0.01370939   -796.40647            0   -796.40625    13163.557 
     227  0.014651083   -796.40653            0   -796.40629    13163.256 
     228  0.015612709   -796.40659            0   -796.40634    13162.946 
     229  0.016592831   -796.40666            0   -796.40638    13162.627 
     230  0.017589992   -796.40672            0   -796.40643    13162.299 
     231  0.018602707   -796.40679            0   -796.40649    13161.963 
     232  0.019629478   -796.40686            0   -796.40654    13161.618 
     233  0.020668782   -796.40693            0    -796.4066    13161.265 
     234  0.021719094   -796.40701            0   -796.40665    13160.905 
     235  0.022778861   -796.40708            0   -796.40671    13160.537 
     236  0.023846573   -796.40716            0   -796.40677    13160.161 
     237  0.024920526   -796.40724            0   -796.40684    13159.779 
     238  0.025999391   -796.40732            0    -796.4069    13159.388 
     239   0.02707905   -796.40741            0   -796.40697    13158.999 
     240  0.028147495    -796.4075            0   -796.40704    13158.571 
     241  0.029029634   -796.40758            0   -796.40711    13158.247 
     242  0.027880773   -796.40767            0   -796.40722     13157.53 
     243  0.012718887   -796.40772            0   -796.40752    13157.723 
     244 0.00024489657   -796.40773            0   -796.40773    13157.402 
     245 0.00038444047   -796.40774            0   -796.40773    13157.237 
     246 0.00056897631   -796.40775            0   -796.40774    13157.091 
     247 0.0007558996   -796.40776            0   -796.40775    13156.983 
     248 0.00093950289   -796.40778            0   -796.40776    13156.899 
     249  0.001136925   -796.40779            0   -796.40778     13156.82 
     250 0.0013521588   -796.40781            0   -796.40779    13156.738 
     251 0.0015851142   -796.40783            0   -796.40781    13156.649 
     252 0.0018354318   -796.40785            0   -796.40782    13156.554 
     253 0.0021027532   -796.40788            0   -796.40784    13156.451 
     254 0.0023867015    -796.4079            0   -796.40786    13156.341 
     255 0.0026868753   -796.40793            0   -796.40788    13156.224 
     256 0.0030028496   -796.40796            0   -796.40791      13156.1 
     257  0.003334176   -796.40799            0   -796.40793     13155.97 
     258 0.0036803835   -796.40802            0   -796.40796    13155.833 
     259 0.0040409799   -796.40805            0   -796.40798     13155.69 
     260 0.0044154523   -796.40808            0   -796.40801     13155.54 
     261 0.0048032677   -796.40812            0   -796.40804    13155.384 
     262 0.0052038742   -796.40816            0   -796.40807    13155.222 
     263 0.0056167014    -796.4082            0   -796.40811    13155.053 
     264 0.0060411621   -796.40824            0   -796.40814    13154.879 
     265 0.0064766528   -796.40828            0   -796.40817    13154.699 
     266 0.0069225546   -796.40832            0   -796.40821    13154.513 
     267 0.0073782344   -796.40837            0   -796.40825    13154.322 
     268 0.0078430463   -796.40842            0   -796.40829    13154.125 
     269 0.0083163318   -796.40846            0   -796.40833    13153.923 
     270 0.0087974217   -796.40851            0   -796.40837    13153.717 
     271 0.0092856368   -796.40857            0   -796.40842    13153.505 
     272 0.0097802889   -796.40862            0   -796.40846    13153.289 
     273  0.010280664   -796.40867            0   -796.40851    13153.068 
     274   0.01078606   -796.40873            0   -796.40856    13152.843 
     275  0.011295785   -796.40879            0    -796.4086    13152.613 
     276  0.011809122   -796.40885            0   -796.40866     13152.38 
     277  0.012325347   -796.40891            0   -796.40871    13152.142 
     278   0.01284369   -796.40897            0   -796.40876    13151.902 
     279  0.013362954   -796.40904            0   -796.40882    13151.657 
     280  0.013876759    -796.4091            0   -796.40887    13151.412 
     281  0.014316795   -796.40917            0   -796.40893    13151.156 
     282   0.01382073   -796.40923            0   -796.40901    13150.922 
     283 0.0062863668   -796.40928            0   -796.40918    13150.602 
     284 7.612933e-05   -796.40928            0   -796.40928    13150.516 
     285 0.0001381445   -796.40929            0   -796.40929    13150.506 
     286 0.00023483113    -796.4093            0   -796.40929    13150.487 
     287 0.00033741507    -796.4093            0    -796.4093    13150.458 
     288 0.00042757462   -796.40932            0   -796.40931    13150.421 
     289 0.00051890143   -796.40933            0   -796.40932    13150.378 
     290 0.00061767466   -796.40934            0   -796.40933     13150.33 
     291 0.00072457702   -796.40936            0   -796.40934    13150.278 
     292 0.00083950535   -796.40937            0   -796.40936    13150.222 
     293 0.00096230613   -796.40939            0   -796.40937    13150.162 
     294  0.001092814   -796.40941            0   -796.40939    13150.098 
     295 0.0012308529   -796.40943            0   -796.40941     13150.03 
     296 0.0013762358   -796.40945            0   -796.40942    13149.959 
     297 0.0015287655   -796.40947            0   -796.40944    13149.883 
     298 0.0016882348   -796.40949            0   -796.40946    13149.803 
     299 0.0018544268   -796.40952            0   -796.40949     13149.72 
     300  0.002027115   -796.40954            0   -796.40951    13149.633 
     301  0.002206064   -796.40957            0   -796.40953    13149.543 
     302 0.0023910298    -796.4096            0   -796.40956    13149.449 
     303   0.00258176   -796.40962            0   -796.40958    13149.352 
     304 0.0027779942   -796.40965            0   -796.40961    13149.251 
     305 0.0029794648   -796.40969            0   -796.40964    13149.148 
     306 0.0031858968   -796.40972            0   -796.40967    13149.041 
     307 0.0033970097   -796.40975            0    -796.4097    13148.931 
     308 0.0036125143   -796.40979            0   -796.40973    13148.818 
     309 0.0038321165   -796.40982            0   -796.40976    13148.702 
     310 0.0040555173   -796.40986            0   -796.40979    13148.584 
     311 0.0042824137    -796.4099            0   -796.40983    13148.463 
     312 0.0045124972   -796.40994            0   -796.40986     13148.34 
     313 0.0047454556   -796.40998            0    -796.4099    13148.215 
     314 0.0049809733   -796.41002            0   -796.40994    13148.087 
     315 0.0052187301   -796.41006            0   -796.40998    13147.957 
     316 0.0054584072   -796.41011            0   -796.41002    13147.826 
     317 0.0056996767   -796.41015            0   -796.41006    13147.693 
     318 0.0059422265    -796.4102            0    -796.4101    13147.558 
     319  0.006185677   -796.41025            0   -796.41014    13147.422 
     320 0.0064296775   -796.41029            0   -796.41019    13147.284 
     321 0.0066715955   -796.41034            0   -796.41024    13147.147 
     322 0.0068877682    -796.4104            0   -796.41028    13146.999 
     323 0.0067223019   -796.41045            0   -796.41034    13146.893 
     324 0.0032584161   -796.41048            0   -796.41043    13146.659 
     325 2.6541307e-05   -796.41048            0   -796.41048    13146.626 
     326 4.7599024e-05   -796.41049            0   -796.41049    13146.634 
     327 8.3140309e-05   -796.41049            0   -796.41049    13146.637 
     328 0.00012832799    -796.4105            0    -796.4105    13146.631 
     329 0.00016992053   -796.41051            0    -796.4105    13146.616 
     330 0.00020974586   -796.41051            0   -796.41051    13146.596 
     331 0.00025227313   -796.41052            0   -796.41052    13146.572 
     332 0.00029844517   -796.41053            0   -796.41053    13146.546 
     333 0.00034829087   -796.41055            0   -796.41054    13146.518 
     334 0.0004017512   -796.41056            0   -796.41055    13146.487 
     335 0.00045875753   -796.41057            0   -796.41056    13146.455 
     336 0.00051923584   -796.41058            0   -796.41058     13146.42 
     337 0.00058310736    -796.4106            0   -796.41059    13146.383 
     338 0.00065028866   -796.41061            0    -796.4106    13146.345 
     339 0.00072069181   -796.41063            0   -796.41062    13146.304 
     340 0.00079422449   -796.41065            0   -796.41064    13146.262 
     341 0.00087079015   -796.41067            0   -796.41065    13146.217 
     342 0.00095028811   -796.41069            0   -796.41067    13146.171 
     343 0.0010326128   -796.41071            0   -796.41069    13146.123 
     344 0.0011176563   -796.41073            0   -796.41071    13146.073 
     345 0.0012053071   -796.41075            0   -796.41073    13146.021 
     346  0.001295449   -796.41077            0   -796.41075    13145.968 
     347 0.0013879631    -796.4108            0   -796.41077    13145.914 
     348 0.0014827273   -796.41082            0    -796.4108    13145.858 
     349 0.0015796168   -796.41085            0   -796.41082      13145.8 
     350 0.0016785034   -796.41087            0   -796.41084    13145.742 
     351 0.0017792572    -796.4109            0   -796.41087    13145.682 
     352 0.0018817448   -796.41093            0    -796.4109    13145.621 
     353 0.0019858325   -796.41096            0   -796.41092    13145.559 
     354 0.0020913812   -796.41099            0   -796.41095    13145.496 
     355 0.0021982558   -796.41102            0   -796.41098    13145.432 
     356 0.0023063074   -796.41105            0   -796.41101    13145.367 
     357 0.0024154156   -796.41108            0   -796.41104    13145.302 
     358 0.0025253805   -796.41111            0   -796.41107    13145.236 
     359 0.0026362169   -796.41115            0   -796.41111    13145.169 
     360 0.0027473227   -796.41118            0   -796.41114    13145.105 
     361 0.0028600554   -796.41122            0   -796.41117     13145.03 
     362 0.0029705236   -796.41126            0   -796.41121    13144.989 
     363 0.0031063647   -796.41129            0   -796.41124    13144.833 
     364 0.0033502753   -796.41133            0   -796.41128    13145.083 
     365 0.0029487732   -796.41135            0    -796.4113     13144.45 
     366 3.8287467e-05   -796.41135            0   -796.41135    13144.468 
     367 5.5698876e-05   -796.41135            0   -796.41135    13144.539 
     368 6.6654665e-05   -796.41136            0   -796.41136    13144.612 
     369 6.7536517e-05   -796.41136            0   -796.41136    13144.673 
     370 6.6549227e-05   -796.41137            0   -796.41136    13144.708 
     371 7.4370324e-05   -796.41137            0   -796.41137     13144.72 
     372 8.9813511e-05   -796.41138            0   -796.41138    13144.718 
     373 0.00010878182   -796.41138            0   -796.41138    13144.709 
     374 0.00012976506   -796.41139            0   -796.41139    13144.697 
     375 0.00015251394    -796.4114            0    -796.4114    13144.684 
     376 0.00017699582   -796.41141            0   -796.41141     13144.67 
     377 0.00020318391   -796.41142            0   -796.41141    13144.655 
     378 0.00023104583   -796.41143            0   -796.41142    13144.639 
     379 0.00026054642   -796.41144            0   -796.41144    13144.622 
     380 0.00029164836   -796.41145            0   -796.41145    13144.604 
     381 0.00032431217   -796.41146            0   -796.41146    13144.585 
     382 0.00035849632   -796.41148            0   -796.41147    13144.565 
     383 0.00039415727   -796.41149            0   -796.41148    13144.545 
     384 0.00043124952    -796.4115            0    -796.4115    13144.524 
     385 0.00046972568   -796.41152            0   -796.41151    13144.502 
     386 0.00050953657   -796.41154            0   -796.41153    13144.479 
     387 0.00055063122   -796.41155            0   -796.41154    13144.455 
     388 0.00059295702   -796.41157            0   -796.41156    13144.431 
     389 0.00063645974   -796.41159            0   -796.41158    13144.407 
     390 0.00068108363    -796.4116            0   -796.41159    13144.382 
     391 0.00072677145   -796.41162            0   -796.41161    13144.356 
     392 0.00077346463   -796.41164            0   -796.41163     13144.33 
     393 0.00082110329   -796.41166            0   -796.41165    13144.303 
     394 0.00086962645   -796.41169            0   -796.41167    13144.277 
     395 0.00091897191   -796.41171            0   -796.41169     13144.25 
     396 0.0009690764   -796.41173            0   -796.41171    13144.222 
     397 0.0010198757   -796.41175            0   -796.41174    13144.195 
     398 0.0010713049   -796.41178            0   -796.41176    13144.168 
     399  0.001123298    -796.4118            0   -796.41178     13144.14 
     400  0.001175789   -796.41183            0   -796.41181    13144.113 
     401 0.0012287095   -796.41185            0   -796.41183    13144.086 
     402 0.0012819939   -796.41188            0   -796.41186    13144.058 
     403 0.0013355499   -796.41191            0   -796.41189    13144.032 
     404 0.0013891857   -796.41194            0   -796.41191    13144.005 
     405 0.0014407881   -796.41196            0   -796.41194    13143.981 
     406 0.0014651737   -796.41199            0   -796.41197     13143.95 
     407  0.001162015   -796.41202            0     -796.412    13143.942 
     408 0.0001131617   -796.41203            0   -796.41203    13143.904 
     409 5.3215638e-05   -796.41203            0   -796.41203    13143.903 
     410 6.4510921e-05   -796.41204            0   -796.41204    13143.899 
     411 7.5798153e-05   -796.41205            0   -796.41204    13143.894 
     412 8.7938372e-05   -796.41205            0   -796.41205    13143.889 
     413 0.00010092454   -796.41206            0   -796.41206    13143.883 
     414 0.00011474089   -796.41207            0   -796.41207    13143.877 
     415 0.00012937045   -796.41208            0   -796.41207    13143.871 
     416 0.00014479521   -796.41209            0   -796.41208    13143.865 
     417 0.00016099614    -796.4121            0   -796.41209    13143.858 
     418 0.00017795319   -796.41211            0    -796.4121    13143.852 
     419 0.00019564535   -796.41212            0   -796.41211    13143.845 
     420 0.00021405066   -796.41213            0   -796.41212    13143.837 
     421 0.00023314623   -796.41214            0   -796.41214     13143.83 
     422 0.00025290808   -796.41215            0   -796.41215    13143.822 
     423 0.0002733117   -796.41216            0   -796.41216    13143.815 
     424 0.00029433165   -796.41218            0   -796.41217    13143.807 
     425 0.00031594164   -796.41219            0   -796.41219    13143.799 
     426 0.0003381147   -796.41221            0    -796.4122    13143.791 
     427 0.00036082315   -796.41222            0   -796.41222    13143.783 
     428 0.00038403865   -796.41224            0   -796.41223    13143.776 
     429 0.00040773213   -796.41225            0   -796.41225    13143.768 
     430 0.00043187411   -796.41227            0   -796.41226    13143.761 
     431 0.00045643415   -796.41229            0   -796.41228    13143.753 
     432 0.00048138217    -796.4123            0    -796.4123    13143.746 
     433 0.00050668569   -796.41232            0   -796.41231     13143.74 
     434 0.00053231614   -796.41234            0   -796.41233    13143.733 
     435  0.000558234   -796.41236            0   -796.41235    13143.727 
     436 0.00058442606   -796.41238            0   -796.41237    13143.721 
     437 0.00061080086    -796.4124            0   -796.41239    13143.716 
     438 0.00063744129   -796.41242            0   -796.41241    13143.711 
     439 0.00066337677   -796.41244            0   -796.41243    13143.711 
     440 0.00068496588   -796.41247            0   -796.41246    13143.693 
     441 0.00063739113   -796.41249            0   -796.41248    13143.735 
     442 0.00023473747    -796.4125            0    -796.4125    13143.646 
     443 4.8796156e-06    -796.4125            0    -796.4125    13143.655 
     444 7.6920434e-06    -796.4125            0    -796.4125    13143.669 
     445 1.1426931e-05   -796.41251            0   -796.41251     13143.68 
     446 1.5562194e-05   -796.41251            0   -796.41251    13143.686 
     447 1.9850331e-05   -796.41251            0   -796.41251    13143.689 
     448 2.4497202e-05   -796.41252            0   -796.41252     13143.69 
     449 2.959545e-05   -796.41252            0   -796.41252     13143.69 
     450 3.5152591e-05   -796.41253            0   -796.41252     13143.69 
     451 4.1164656e-05   -796.41253            0   -796.41253    13143.689 
     452 4.7625712e-05   -796.41254            0   -796.41254    13143.689 
     453 5.4528343e-05   -796.41254            0   -796.41254    13143.689 
     454 6.186433e-05   -796.41255            0   -796.41255    13143.689 
     455 6.9624891e-05   -796.41256            0   -796.41255    13143.689 
     456 7.7800711e-05   -796.41256            0   -796.41256    13143.689 
     457 8.638195e-05   -796.41257            0   -796.41257     13143.69 
     458 9.535826e-05   -796.41258            0   -796.41258     13143.69 
     459 0.00010471879   -796.41259            0   -796.41259    13143.691 
     460 0.00011445223    -796.4126            0    -796.4126    13143.691 
     461 0.00012454676   -796.41261            0    -796.4126    13143.692 
     462 0.00013499015   -796.41262            0   -796.41261    13143.693 
     463 0.0001457697   -796.41263            0   -796.41262    13143.694 
     464 0.00015687232   -796.41264            0   -796.41264    13143.696 
     465 0.0001682845   -796.41265            0   -796.41265    13143.697 
     466 0.00017999235   -796.41266            0   -796.41266    13143.699 
     467 0.00019198162   -796.41267            0   -796.41267    13143.702 
     468 0.00020423772   -796.41269            0   -796.41268    13143.704 
     469 0.0002167457    -796.4127            0    -796.4127    13143.707 
     470 0.00022949035   -796.41271            0   -796.41271    13143.711 
     471 0.00024245612   -796.41273            0   -796.41272    13143.715 
     472 0.00025562725   -796.41274            0   -796.41274    13143.719 
     473 0.00026898767   -796.41276            0   -796.41275    13143.724 
     474 0.00028252114   -796.41277            0   -796.41277    13143.729 
     475 0.00029621116   -796.41279            0   -796.41278    13143.735 
     476 0.00031004096    -796.4128            0    -796.4128    13143.741 
     477 0.00032399266   -796.41282            0   -796.41281    13143.748 
     478 0.00033803813   -796.41284            0   -796.41283    13143.756 
     479 0.00035203887   -796.41285            0   -796.41285    13143.764 
     480 0.0003644948   -796.41287            0   -796.41287    13143.774 
     481 0.00035663181   -796.41289            0   -796.41288    13143.782 
     482 0.00018237282    -796.4129            0    -796.4129    13143.789 
     483 3.2156199e-06    -796.4129            0    -796.4129    13143.787 
     484 6.0390129e-06   -796.41291            0   -796.41291    13143.788 
     485 9.7353389e-06   -796.41291            0   -796.41291    13143.789 
     486 1.2662837e-05   -796.41291            0   -796.41291    13143.791 
     487 1.5371103e-05   -796.41292            0   -796.41292    13143.793 
     488 1.8284562e-05   -796.41292            0   -796.41292    13143.795 
     489 2.1438995e-05   -796.41292            0   -796.41292    13143.798 
     490 2.4831654e-05   -796.41293            0   -796.41293    13143.801 
     491 2.8458628e-05   -796.41293            0   -796.41293    13143.804 
     492 3.2315711e-05   -796.41294            0   -796.41294    13143.807 
     493 3.6398415e-05   -796.41294            0   -796.41294    13143.811 
     494 4.0701974e-05   -796.41295            0   -796.41295    13143.815 
     495 4.522135e-05   -796.41296            0   -796.41296    13143.819 
     496 4.9951242e-05   -796.41296            0   -796.41296    13143.824 
     497 5.4886091e-05   -796.41297            0   -796.41297    13143.829 
     498 6.0020087e-05   -796.41298            0   -796.41298    13143.834 
     499 6.5347176e-05   -796.41299            0   -796.41298     13143.84 
     500 7.0861069e-05   -796.41299            0   -796.41299    13143.845 
     501 7.6555252e-05     -796.413            0     -796.413    13143.852 
     502 8.2422988e-05   -796.41301            0   -796.41301    13143.858 
     503 8.8457334e-05   -796.41302            0   -796.41302    13143.866 
     504 9.4651142e-05   -796.41303            0   -796.41303    13143.873 
     505 0.00010099707   -796.41304            0   -796.41304    13143.881 
     506 0.00010748761   -796.41305            0   -796.41305     13143.89 
     507 0.00011411505   -796.41306            0   -796.41306    13143.898 
     508 0.00012087155   -796.41307            0   -796.41307    13143.908 
     509 0.00012774908   -796.41308            0   -796.41308    13143.918 
     510 0.0001347395   -796.41309            0   -796.41309    13143.928 
     511 0.00014183452   -796.41311            0    -796.4131    13143.939 
     512 0.00014902574   -796.41312            0   -796.41312    13143.951 
     513 0.0001563046   -796.41313            0   -796.41313    13143.963 
     514 0.00016366258   -796.41314            0   -796.41314    13143.976 
     515 0.00017109048   -796.41316            0   -796.41315     13143.99 
     516 0.00017857922   -796.41317            0   -796.41317    13144.004 
     517 0.00018609855   -796.41319            0   -796.41318    13144.019 
     518 0.00019342886    -796.4132            0    -796.4132    13144.034 
     519 0.00019734749   -796.41321            0   -796.41321    13144.054 
     520 0.00015864026   -796.41323            0   -796.41322    13144.056 
     521 1.5008096e-05   -796.41323            0   -796.41323    13144.071 
     522 6.6241656e-06   -796.41323            0   -796.41323    13144.071 
     523 8.2081633e-06   -796.41324            0   -796.41324    13144.074 
     524 9.7722625e-06   -796.41324            0   -796.41324    13144.078 
     525 1.1465651e-05   -796.41324            0   -796.41324    13144.082 
     526 1.328777e-05   -796.41325            0   -796.41325    13144.086 
     527 1.5236522e-05   -796.41325            0   -796.41325    13144.091 
     528 1.7309714e-05   -796.41326            0   -796.41325    13144.096 
     529   1.9505e-05   -796.41326            0   -796.41326    13144.102 
     530 2.1819891e-05   -796.41326            0   -796.41326    13144.108 
     531 2.4251753e-05   -796.41327            0   -796.41327    13144.114 
     532 2.6797815e-05   -796.41328            0   -796.41327    13144.121 
     533 2.9455166e-05   -796.41328            0   -796.41328    13144.128 
     534 3.2220767e-05   -796.41329            0   -796.41329    13144.135 
     535 3.5091448e-05   -796.41329            0   -796.41329    13144.143 
     536 3.8063915e-05    -796.4133            0    -796.4133    13144.152 
     537 4.1134752e-05   -796.41331            0   -796.41331    13144.161 
     538 4.4300431e-05   -796.41331            0   -796.41331     13144.17 
     539 4.7557307e-05   -796.41332            0   -796.41332     13144.18 
     540 5.0901631e-05   -796.41333            0   -796.41333     13144.19 
     541 5.4329551e-05   -796.41334            0   -796.41334    13144.201 
     542 5.7837119e-05   -796.41335            0   -796.41334    13144.212 
     543 6.1420289e-05   -796.41335            0   -796.41335    13144.224 
     544 6.5074935e-05   -796.41336            0   -796.41336    13144.236 
     545 6.8796836e-05   -796.41337            0   -796.41337    13144.249 
     546 7.2581725e-05   -796.41338            0   -796.41338    13144.262 
     547 7.6425171e-05   -796.41339            0   -796.41339    13144.276 
     548 8.0322902e-05    -796.4134            0    -796.4134    13144.291 
     549 8.4269682e-05   -796.41341            0   -796.41341    13144.306 
     550  8.82605e-05   -796.41342            0   -796.41342    13144.322 
     551 9.2264155e-05   -796.41343            0   -796.41343    13144.339 
     552 9.6050065e-05   -796.41344            0   -796.41344    13144.354 
     553 9.6615498e-05   -796.41346            0   -796.41345    13144.378 
     554 6.6652476e-05   -796.41346            0   -796.41346    13144.374 
     555 4.0468203e-06   -796.41347            0   -796.41347    13144.388 
     556 6.0751083e-06   -796.41347            0   -796.41347    13144.394 
     557 7.0435714e-06   -796.41347            0   -796.41347    13144.399 
     558 8.1426222e-06   -796.41348            0   -796.41348    13144.404 
     559 9.3184836e-06   -796.41348            0   -796.41348    13144.409 
     560 1.0568268e-05   -796.41348            0   -796.41348    13144.415 
     561 1.1890721e-05   -796.41349            0   -796.41349    13144.422 
     562 1.328429e-05   -796.41349            0   -796.41349    13144.428 
     563 1.4747476e-05   -796.41349            0   -796.41349    13144.436 
     564 1.6278614e-05    -796.4135            0    -796.4135    13144.443 
     565 1.7876028e-05    -796.4135            0    -796.4135    13144.451 
     566 1.9537905e-05   -796.41351            0   -796.41351     13144.46 
     567 2.1262417e-05   -796.41351            0   -796.41351    13144.469 
     568 2.3047596e-05   -796.41352            0   -796.41352    13144.478 
     569 2.489149e-05   -796.41353            0   -796.41353    13144.488 
     570 2.6791955e-05   -796.41353            0   -796.41353    13144.498 
     571 2.8746973e-05   -796.41354            0   -796.41354    13144.509 
     572 3.0754126e-05   -796.41354            0   -796.41354     13144.52 
     573 3.2811497e-05   -796.41355            0   -796.41355    13144.532 
     574 3.4915754e-05   -796.41356            0   -796.41356    13144.544 
     575 3.7065034e-05   -796.41357            0   -796.41357    13144.557 
     576 3.9246564e-05   -796.41357            0   -796.41357    13144.571 
     577 4.1426763e-05   -796.41358            0   -796.41358    13144.584 
     578 4.3304682e-05   -796.41359            0   -796.41359    13144.601 
     579 4.298668e-05    -796.4136            0    -796.4136    13144.608 
     580 3.0087971e-05    -796.4136            0    -796.4136    13144.637 
     581 5.6127604e-06   -796.41361            0   -796.41361    13144.627 
     582 4.0528121e-06   -796.41361            0   -796.41361    13144.634 
     583 4.7078585e-06   -796.41361            0   -796.41361    13144.639 
     584 5.4600106e-06   -796.41361            0   -796.41361    13144.644 
     585 6.2661318e-06   -796.41362            0   -796.41362    13144.649 
     586 7.1241711e-06   -796.41362            0   -796.41362    13144.655 
     587 8.0333201e-06   -796.41362            0   -796.41362    13144.662 
     588 8.9925177e-06   -796.41363            0   -796.41363    13144.668 
     589 1.0000757e-05   -796.41363            0   -796.41363    13144.676 
     590 1.1056908e-05   -796.41363            0   -796.41363    13144.683 
     591 1.2159836e-05   -796.41364            0   -796.41364    13144.691 
     592 1.330831e-05   -796.41364            0   -796.41364      13144.7 
     593 1.4501091e-05   -796.41365            0   -796.41365    13144.709 
     594 1.5736836e-05   -796.41365            0   -796.41365    13144.718 
     595 1.7014226e-05   -796.41366            0   -796.41366    13144.728 
     596 1.8331788e-05   -796.41366            0   -796.41366    13144.738 
     597 1.9688167e-05   -796.41367            0   -796.41367    13144.749 
     598 2.1081675e-05   -796.41367            0   -796.41367     13144.76 
     599 2.251107e-05   -796.41368            0   -796.41368    13144.772 
     600 2.3973882e-05   -796.41369            0   -796.41369    13144.785 
     601 2.5468958e-05   -796.41369            0   -796.41369    13144.797 
     602 2.6985337e-05    -796.4137            0    -796.4137    13144.811 
     603 2.8492283e-05   -796.41371            0   -796.41371    13144.823 
     604 2.9705404e-05   -796.41371            0   -796.41371    13144.841 
     605 2.8818543e-05   -796.41372            0   -796.41372    13144.846 
     606 1.7373068e-05   -796.41372            0   -796.41372    13144.874 
     607 2.5119927e-06   -796.41373            0   -796.41373    13144.867 
     608 2.7930524e-06   -796.41373            0   -796.41373    13144.871 
     609 3.284038e-06   -796.41373            0   -796.41373    13144.875 
     610 3.8144004e-06   -796.41373            0   -796.41373     13144.88 
     611 4.3823278e-06   -796.41374            0   -796.41374    13144.886 
     612 4.9872705e-06   -796.41374            0   -796.41374    13144.892 
     613 5.6285618e-06   -796.41374            0   -796.41374    13144.898 
     614 6.3055252e-06   -796.41374            0   -796.41374    13144.905 
     615 7.0174285e-06   -796.41375            0   -796.41375    13144.912 
     616 7.7635103e-06   -796.41375            0   -796.41375    13144.919 
     617 8.5429627e-06   -796.41376            0   -796.41376    13144.927 
     618 9.3549476e-06   -796.41376            0   -796.41376    13144.936 
     619 1.0198583e-05   -796.41376            0   -796.41376    13144.945 
     620 1.107296e-05   -796.41377            0   -796.41377    13144.954 
     621 1.1977123e-05   -796.41377            0   -796.41377    13144.963 
     622 1.2910102e-05   -796.41378            0   -796.41378    13144.974 
     623 1.3870866e-05   -796.41378            0   -796.41378    13144.984 
     624 1.4858401e-05   -796.41379            0   -796.41379    13144.995 
     625 1.5871569e-05   -796.41379            0   -796.41379    13145.007 
     626 1.6909385e-05    -796.4138            0    -796.4138    13145.019 
     627 1.7970375e-05    -796.4138            0    -796.4138    13145.031 
     628 1.9053697e-05   -796.41381            0   -796.41381    13145.044 
     629 2.0154142e-05   -796.41381            0   -796.41381    13145.058 
     630 2.1257552e-05   -796.41382            0   -796.41382    13145.071 
     631 2.2210567e-05   -796.41383            0   -796.41383    13145.087 
     632 2.1874015e-05   -796.41383            0   -796.41383    13145.095 
     633 1.3576898e-05   -796.41384            0   -796.41384     13145.12 
     634 1.4658163e-06   -796.41384            0   -796.41384    13145.115 
     635 1.8364008e-06   -796.41384            0   -796.41384    13145.118 
     636 2.1629586e-06   -796.41384            0   -796.41384    13145.122 
     637 2.5233679e-06   -796.41385            0   -796.41385    13145.127 
     638 2.9101769e-06   -796.41385            0   -796.41385    13145.132 
     639 3.3230245e-06   -796.41385            0   -796.41385    13145.138 
     640 3.7614394e-06   -796.41385            0   -796.41385    13145.144 
     641 4.2249752e-06   -796.41386            0   -796.41386     13145.15 
     642 4.7131338e-06   -796.41386            0   -796.41386    13145.157 
     643 5.2254052e-06   -796.41386            0   -796.41386    13145.164 
     644 5.7612406e-06   -796.41386            0   -796.41386    13145.171 
     645 6.3200761e-06   -796.41387            0   -796.41387    13145.179 
     646 6.9013109e-06   -796.41387            0   -796.41387    13145.188 
     647 7.5043331e-06   -796.41388            0   -796.41388    13145.196 
     648 8.1284882e-06   -796.41388            0   -796.41388    13145.206 
     649 8.7731258e-06   -796.41388            0   -796.41388    13145.215 
     650 9.437528e-06   -796.41389            0   -796.41389    13145.225 
     651 1.0121031e-05   -796.41389            0   -796.41389    13145.236 
     652 1.0822794e-05    -796.4139            0    -796.4139    13145.247 
     653 1.154221e-05    -796.4139            0    -796.4139    13145.258 
     654 1.2277753e-05   -796.41391            0   -796.41391     13145.27 
     655 1.3027826e-05   -796.41391            0   -796.41391    13145.282 
     656 1.3776548e-05   -796.41392            0   -796.41392    13145.295 
     657 1.4438109e-05   -796.41392            0   -796.41392    13145.306 
     658 1.4286133e-05   -796.41393            0   -796.41393    13145.323 
     659 9.5160473e-06   -796.41393            0   -796.41393    13145.325 
     660 1.3680456e-06   -796.41393            0   -796.41393    13145.335 
     661 1.346262e-06   -796.41393            0   -796.41393    13145.338 
     662 1.5869317e-06   -796.41394            0   -796.41394    13145.343 
     663 1.8491314e-06   -796.41394            0   -796.41394    13145.347 
     664 2.1303915e-06   -796.41394            0   -796.41394    13145.352 
     665 2.4304434e-06   -796.41394            0   -796.41394    13145.357 
     666 2.7489515e-06   -796.41394            0   -796.41394    13145.363 
     667 3.085595e-06   -796.41395            0   -796.41395    13145.369 
     668 3.4400164e-06   -796.41395            0   -796.41395    13145.376 
     669 3.8118506e-06   -796.41395            0   -796.41395    13145.382 
     670 4.2007033e-06   -796.41395            0   -796.41395     13145.39 
     671 4.6061716e-06   -796.41396            0   -796.41396    13145.397 
     672 5.0278232e-06   -796.41396            0   -796.41396    13145.405 
     673 5.4652219e-06   -796.41396            0   -796.41396    13145.414 
     674 5.9178952e-06   -796.41397            0   -796.41397    13145.422 
     675 6.3853827e-06   -796.41397            0   -796.41397    13145.432 
     676 6.8671568e-06   -796.41397            0   -796.41397    13145.441 
     677 7.3627564e-06   -796.41398            0   -796.41398    13145.451 
     678 7.8714945e-06   -796.41398            0   -796.41398    13145.461 
     679 8.3928471e-06   -796.41399            0   -796.41399    13145.472 
     680 8.9243443e-06   -796.41399            0   -796.41399    13145.483 
     681 9.4582269e-06     -796.414            0     -796.414    13145.495 
     682 9.9300691e-06     -796.414            0     -796.414    13145.507 
     683 9.9045689e-06     -796.414            0     -796.414    13145.517 
     684 6.9311374e-06   -796.41401            0   -796.41401    13145.532 
     685 1.2028637e-06   -796.41401            0   -796.41401    13145.532 
     686 9.2654155e-07   -796.41401            0   -796.41401    13145.536 
     687 1.0921965e-06   -796.41401            0   -796.41401     13145.54 
     688 1.2791466e-06   -796.41401            0   -796.41401    13145.544 
     689 1.4804065e-06   -796.41402            0   -796.41402    13145.548 
     690 1.6955806e-06   -796.41402            0   -796.41402    13145.553 
     691 1.9244624e-06   -796.41402            0   -796.41402    13145.558 
     692 2.1668063e-06   -796.41402            0   -796.41402    13145.564 
     693 2.4223683e-06   -796.41402            0   -796.41402     13145.57 
     694 2.6908802e-06   -796.41403            0   -796.41403    13145.576 
     695 2.9720676e-06   -796.41403            0   -796.41403    13145.583 
     696 3.2656347e-06   -796.41403            0   -796.41403     13145.59 
     697 3.5712809e-06   -796.41403            0   -796.41403    13145.597 
     698 3.8886817e-06   -796.41404            0   -796.41404    13145.605 
     699 4.2175146e-06   -796.41404            0   -796.41404    13145.613 
     700 4.5574212e-06   -796.41404            0   -796.41404    13145.621 
     701 4.9080665e-06   -796.41405            0   -796.41405     13145.63 
     702 5.2690258e-06   -796.41405            0   -796.41405    13145.639 
     703 5.6399459e-06   -796.41405            0   -796.41405    13145.649 
     704 6.0199314e-06   -796.41406            0   -796.41406    13145.659 
     705 6.4071901e-06   -796.41406            0   -796.41406    13145.669 
     706 6.7887419e-06   -796.41407            0   -796.41406     13145.68 
     707  7.08666e-06   -796.41407            0   -796.41407     13145.69 
     708 6.7366919e-06   -796.41407            0   -796.41407    13145.703 
     709 3.6165404e-06   -796.41408            0   -796.41408    13145.707 
     710 4.8078146e-07   -796.41408            0   -796.41408    13145.711 
     711 6.5154895e-07   -796.41408            0   -796.41408    13145.715 
     712 7.7661295e-07   -796.41408            0   -796.41408    13145.718 
     713 9.1323743e-07   -796.41408            0   -796.41408    13145.722 
     714 1.0604819e-06   -796.41408            0   -796.41408    13145.726 
     715 1.2181726e-06   -796.41408            0   -796.41408    13145.731 
     716 1.386153e-06   -796.41409            0   -796.41409    13145.736 
     717 1.5642504e-06   -796.41409            0   -796.41409    13145.741 
     718 1.7522842e-06   -796.41409            0   -796.41409    13145.746 
     719 1.9500609e-06   -796.41409            0   -796.41409    13145.752 
     720 2.1573783e-06   -796.41409            0   -796.41409    13145.758 
     721 2.3740224e-06    -796.4141            0    -796.4141    13145.764 
     722 2.5997706e-06    -796.4141            0    -796.4141    13145.771 
     723 2.8343887e-06    -796.4141            0    -796.4141    13145.778 
     724 3.0776356e-06    -796.4141            0    -796.4141    13145.786 
     725 3.3292567e-06   -796.41411            0   -796.41411    13145.793 
     726 3.588995e-06   -796.41411            0   -796.41411    13145.802 
     727 3.8565721e-06   -796.41411            0   -796.41411     13145.81 
     728 4.1317211e-06   -796.41412            0   -796.41412    13145.819 
     729 4.4141009e-06   -796.41412            0   -796.41412    13145.828 
     730 4.7033668e-06   -796.41412            0   -796.41412    13145.837 
     731 4.998231e-06   -796.41413            0   -796.41413    13145.847 
     732 5.2931425e-06   -796.41413            0   -796.41413    13145.857 
     733 5.5419095e-06   -796.41413            0   -796.41413    13145.868 
     734 5.3908225e-06   -796.41414            0   -796.41414    13145.877 
     735 3.0755275e-06   -796.41414            0   -796.41414    13145.887 
     736 3.1505451e-07   -796.41414            0   -796.41414    13145.888 
     737 4.6188751e-07   -796.41414            0   -796.41414    13145.891 
     738 5.5152209e-07   -796.41414            0   -796.41414    13145.894 
     739 6.5048724e-07   -796.41414            0   -796.41414    13145.897 
     740 7.5728936e-07   -796.41414            0   -796.41414    13145.901 
     741 8.7181785e-07   -796.41415            0   -796.41415    13145.905 
     742 9.9395406e-07   -796.41415            0   -796.41415     13145.91 
     743 1.1235758e-06   -796.41415            0   -796.41415    13145.914 
     744 1.260551e-06   -796.41415            0   -796.41415    13145.919 
     745 1.404741e-06   -796.41415            0   -796.41415    13145.924 
     746 1.5559983e-06   -796.41415            0   -796.41415     13145.93 
     747 1.7141689e-06   -796.41416            0   -796.41416    13145.936 
     748 1.8790903e-06   -796.41416            0   -796.41416    13145.942 
     749 2.0505939e-06   -796.41416            0   -796.41416    13145.948 
     750 2.2285025e-06   -796.41416            0   -796.41416    13145.955 
     751 2.4126346e-06   -796.41417            0   -796.41417    13145.962 
     752 2.6027971e-06   -796.41417            0   -796.41417     13145.97 
     753 2.7987982e-06   -796.41417            0   -796.41417    13145.977 
     754 3.0004189e-06   -796.41417            0   -796.41417    13145.985 
     755 3.2074463e-06   -796.41418            0   -796.41418    13145.994 
     756 3.4194473e-06   -796.41418            0   -796.41418    13146.002 
     757 3.635275e-06   -796.41418            0   -796.41418    13146.011 
     758 3.8467132e-06   -796.41418            0   -796.41418     13146.02 
     759 3.9945942e-06   -796.41419            0   -796.41419     13146.03 
     760 3.6250308e-06   -796.41419            0   -796.41419     13146.04 
     761 1.4021011e-06   -796.41419            0   -796.41419    13146.043 
     762 1.5556758e-07   -796.41419            0   -796.41419    13146.046 
     763 2.458015e-07   -796.41419            0   -796.41419    13146.048 
     764 3.0692716e-07    -796.4142            0    -796.4142    13146.051 
     765 3.7108997e-07    -796.4142            0    -796.4142    13146.053 
     766 4.4115145e-07    -796.4142            0    -796.4142    13146.056 
     767 5.170437e-07    -796.4142            0    -796.4142     13146.06 
     768 5.9869128e-07    -796.4142            0    -796.4142    13146.063 
     769 6.8601267e-07    -796.4142            0    -796.4142    13146.067 
     770 7.7892031e-07    -796.4142            0    -796.4142    13146.071 
     771 8.7732067e-07    -796.4142            0    -796.4142    13146.075 
     772 9.8111434e-07    -796.4142            0    -796.4142     13146.08 
     773 1.0901962e-06   -796.41421            0   -796.41421    13146.085 
     774 1.2044553e-06   -796.41421            0   -796.41421     13146.09 
     775 1.3237755e-06   -796.41421            0   -796.41421    13146.096 
     776 1.4480349e-06   -796.41421            0   -796.41421    13146.101 
     777 1.5771065e-06   -796.41421            0   -796.41421    13146.107 
     778 1.7108581e-06   -796.41422            0   -796.41422    13146.114 
     779 1.8491525e-06   -796.41422            0   -796.41422     13146.12 
     780 1.9918477e-06   -796.41422            0   -796.41422    13146.127 
     781 2.138797e-06   -796.41422            0   -796.41422    13146.134 
     782 2.2898489e-06   -796.41423            0   -796.41423    13146.142 
     783 2.444848e-06   -796.41423            0   -796.41423    13146.149 
     784 2.6036339e-06   -796.41423            0   -796.41423    13146.157 
     785 2.766043e-06   -796.41423            0   -796.41423    13146.166 
     786   2.9319e-06   -796.41424            0   -796.41424    13146.174 
     787 3.1010042e-06   -796.41424            0   -796.41424    13146.183 
     788 3.2727842e-06   -796.41424            0   -796.41424    13146.192 
     789 3.4432662e-06   -796.41424            0   -796.41424    13146.201 
     790 3.5674528e-06   -796.41425            0   -796.41425    13146.211 
     791 3.1607542e-06   -796.41425            0   -796.41425    13146.219 
     792 7.2860214e-07   -796.41425            0   -796.41425    13146.224 
     793 4.367503e-08   -796.41425            0   -796.41425    13146.225 
     794 7.4555523e-08   -796.41425            0   -796.41425    13146.226 
     795 1.1003435e-07   -796.41425            0   -796.41425    13146.228 
     796 1.447351e-07   -796.41425            0   -796.41425    13146.229 
     797 1.8187049e-07   -796.41425            0   -796.41425    13146.231 
     798 2.2297093e-07   -796.41426            0   -796.41426    13146.234 
     799 2.6814315e-07   -796.41426            0   -796.41426    13146.236 
     800 3.1734449e-07   -796.41426            0   -796.41426    13146.239 
     801 3.7052635e-07   -796.41426            0   -796.41426    13146.242 
     802 4.2763602e-07   -796.41426            0   -796.41426    13146.245 
     803 4.8861658e-07   -796.41426            0   -796.41426    13146.248 
     804  5.53407e-07   -796.41426            0   -796.41426    13146.252 
     805 6.2194218e-07   -796.41426            0   -796.41426    13146.256 
     806 6.9415305e-07   -796.41426            0   -796.41426     13146.26 
     807 7.699666e-07   -796.41427            0   -796.41427    13146.265 
     808  8.49306e-07   -796.41427            0   -796.41427    13146.269 
     809 9.3209064e-07   -796.41427            0   -796.41427    13146.274 
     810 1.0182362e-06   -796.41427            0   -796.41427    13146.279 
     811 1.1076549e-06   -796.41427            0   -796.41427    13146.285 
     812 1.2002553e-06   -796.41427            0   -796.41427     13146.29 
     813 1.2959427e-06   -796.41428            0   -796.41428    13146.296 
     814 1.3946189e-06   -796.41428            0   -796.41428    13146.302 
     815 1.4961826e-06   -796.41428            0   -796.41428    13146.309 
     816 1.6005296e-06   -796.41428            0   -796.41428    13146.315 
     817 1.7075524e-06   -796.41428            0   -796.41428    13146.322 
     818 1.817141e-06   -796.41429            0   -796.41429    13146.329 
     819 1.9291814e-06   -796.41429            0   -796.41429    13146.337 
     820 2.0435582e-06   -796.41429            0   -796.41429    13146.344 
     821 2.1601312e-06   -796.41429            0   -796.41429    13146.352 
     822 2.2786308e-06    -796.4143            0    -796.4143     13146.36 
     823 2.3969918e-06    -796.4143            0    -796.4143    13146.368 
     824  2.49226e-06    -796.4143            0    -796.4143    13146.376 
     825 2.2868396e-06    -796.4143            0    -796.4143    13146.385 
     826 6.2664245e-07    -796.4143            0    -796.4143    13146.388 
     827 1.4980417e-08   -796.41431            0   -796.41431    13146.389 
     828 2.6819425e-08   -796.41431            0   -796.41431     13146.39 
     829 4.5231609e-08   -796.41431            0   -796.41431    13146.391 
     830 6.7146133e-08   -796.41431            0   -796.41431    13146.392 
     831 8.9573879e-08   -796.41431            0   -796.41431    13146.394 
     832 1.1376485e-07   -796.41431            0   -796.41431    13146.395 
     833 1.4062499e-07   -796.41431            0   -796.41431    13146.397 
     834 1.7025513e-07   -796.41431            0   -796.41431    13146.399 
     835 2.0263044e-07   -796.41431            0   -796.41431    13146.402 
     836 2.377192e-07   -796.41431            0   -796.41431    13146.404 
     837 2.7548672e-07   -796.41431            0   -796.41431    13146.407 
     838 3.1589544e-07   -796.41431            0   -796.41431     13146.41 
     839 3.5890502e-07   -796.41431            0   -796.41431    13146.413 
     840 4.0447233e-07   -796.41431            0   -796.41431    13146.416 
     841 4.5255152e-07   -796.41431            0   -796.41431     13146.42 
     842 5.0309408e-07   -796.41432            0   -796.41432    13146.423 
     843 5.5604885e-07   -796.41432            0   -796.41432    13146.427 
     844 6.1136211e-07   -796.41432            0   -796.41432    13146.432 
     845 6.689776e-07   -796.41432            0   -796.41432    13146.436 
     846 7.2883663e-07   -796.41432            0   -796.41432    13146.441 
     847 7.9087808e-07   -796.41432            0   -796.41432    13146.445 
     848 8.5503852e-07   -796.41432            0   -796.41432     13146.45 
     849 9.2125218e-07   -796.41433            0   -796.41433    13146.456 
     850 9.8945122e-07   -796.41433            0   -796.41433    13146.461 
     851 1.0595655e-06   -796.41433            0   -796.41433    13146.467 
     852 1.131523e-06   -796.41433            0   -796.41433    13146.473 
     853 1.2052492e-06   -796.41433            0   -796.41433    13146.479 
     854 1.2806692e-06   -796.41433            0   -796.41433    13146.485 
     855 1.3577018e-06   -796.41434            0   -796.41434    13146.491 
     856 1.4362717e-06   -796.41434            0   -796.41434    13146.498 
     857 1.5162405e-06   -796.41434            0   -796.41434    13146.505 
     858 1.5971984e-06   -796.41434            0   -796.41434    13146.512 
     859 1.6740032e-06   -796.41435            0   -796.41435    13146.519 
     860 1.6844511e-06   -796.41435            0   -796.41435    13146.526 
     861 1.0451087e-06   -796.41435            0   -796.41435    13146.533 
     862 3.5869352e-08   -796.41435            0   -796.41435    13146.533 
     863 7.1513588e-08   -796.41435            0   -796.41435    13146.534 
     864 9.3458722e-08   -796.41435            0   -796.41435    13146.536 
     865 1.1344171e-07   -796.41435            0   -796.41435    13146.538 
     866 1.3533704e-07   -796.41435            0   -796.41435     13146.54 
     867 1.5909469e-07   -796.41435            0   -796.41435    13146.542 
     868 1.8469091e-07   -796.41435            0   -796.41435    13146.544 
     869 2.1210022e-07   -796.41435            0   -796.41435    13146.547 
     870 2.4129522e-07   -796.41435            0   -796.41435    13146.549 
     871 2.7224663e-07   -796.41436            0   -796.41436    13146.552 
     872 3.0492328e-07   -796.41436            0   -796.41436    13146.555 
     873 3.3929216e-07   -796.41436            0   -796.41436    13146.558 
     874 3.7531846e-07   -796.41436            0   -796.41436    13146.562 
     875 4.1296558e-07   -796.41436            0   -796.41436    13146.565 
     876 4.521952e-07   -796.41436            0   -796.41436    13146.569 
     877 4.929673e-07   -796.41436            0   -796.41436    13146.573 
     878 5.3524021e-07   -796.41436            0   -796.41436    13146.577 
     879 5.7897062e-07   -796.41436            0   -796.41436    13146.581 
     880 6.2411371e-07   -796.41437            0   -796.41437    13146.586 
     881 6.7062296e-07   -796.41437            0   -796.41437    13146.591 
     882 7.1845063e-07   -796.41437            0   -796.41437    13146.595 
     883 7.6754601e-07   -796.41437            0   -796.41437      13146.6 
     884 8.1785412e-07   -796.41437            0   -796.41437    13146.606 
     885 8.6927531e-07   -796.41437            0   -796.41437    13146.611 
     886 9.2139964e-07   -796.41437            0   -796.41437    13146.616 
     887 9.7072753e-07   -796.41438            0   -796.41438    13146.622 
     888 9.8363677e-07   -796.41438            0   -796.41438    13146.628 
     889 7.0026878e-07   -796.41438            0   -796.41438    13146.633 
     890 7.4154741e-08   -796.41438            0   -796.41438    13146.634 
     891 7.7422282e-08   -796.41438            0   -796.41438    13146.636 
     892 9.2872645e-08   -796.41438            0   -796.41438    13146.637 
     893 1.0978218e-07   -796.41438            0   -796.41438    13146.639 
     894 1.2805212e-07   -796.41438            0   -796.41438    13146.641 
     895 1.4766161e-07   -796.41438            0   -796.41438    13146.643 
     896 1.6859102e-07   -796.41438            0   -796.41438    13146.646 
     897 1.9081924e-07   -796.41438            0   -796.41438    13146.648 
     898 2.1432391e-07   -796.41439            0   -796.41439    13146.651 
     899 2.3908121e-07   -796.41439            0   -796.41439    13146.653 
     900 2.650661e-07   -796.41439            0   -796.41439    13146.656 
     901 2.9225209e-07   -796.41439            0   -796.41439    13146.659 
     902 3.2061154e-07   -796.41439            0   -796.41439    13146.663 
     903 3.5011533e-07   -796.41439            0   -796.41439    13146.666 
     904 3.8073339e-07   -796.41439            0   -796.41439     13146.67 
     905 4.1243368e-07   -796.41439            0   -796.41439    13146.673 
     906 4.4518305e-07   -796.41439            0   -796.41439    13146.677 
     907 4.7894092e-07   -796.41439            0   -796.41439    13146.681 
     908 5.1364534e-07    -796.4144            0    -796.4144    13146.685 
     909 5.490772e-07    -796.4144            0    -796.4144     13146.69 
     910 5.8404512e-07    -796.4144            0    -796.4144    13146.694 
     911 6.0999989e-07    -796.4144            0    -796.4144    13146.699 
     912 5.6700418e-07    -796.4144            0    -796.4144    13146.703 
     913 2.5834218e-07    -796.4144            0    -796.4144    13146.706 
     914 3.2146138e-08    -796.4144            0    -796.4144    13146.707 
     915 4.8985976e-08    -796.4144            0    -796.4144    13146.708 
     916 5.9944576e-08    -796.4144            0    -796.4144     13146.71 
     917 7.1950095e-08    -796.4144            0    -796.4144    13146.711 
     918 8.5014091e-08    -796.4144            0    -796.4144    13146.713 
     919 9.9123516e-08    -796.4144            0    -796.4144    13146.715 
     920 1.1426431e-07    -796.4144            0    -796.4144    13146.717 
     921 1.304213e-07   -796.41441            0   -796.41441    13146.719 
     922 1.4757822e-07   -796.41441            0   -796.41441    13146.721 
     923 1.6571776e-07   -796.41441            0   -796.41441    13146.723 
     924 1.8482151e-07   -796.41441            0   -796.41441    13146.726 
     925 2.0487007e-07   -796.41441            0   -796.41441    13146.728 
     926  2.25843e-07   -796.41441            0   -796.41441    13146.731 
     927 2.4771887e-07   -796.41441            0   -796.41441    13146.734 
     928 2.7047529e-07   -796.41441            0   -796.41441    13146.737 
     929 2.940889e-07   -796.41441            0   -796.41441     13146.74 
     930 3.1853543e-07   -796.41441            0   -796.41441    13146.744 
     931 3.4378968e-07   -796.41441            0   -796.41441    13146.747 
     932 3.6982564e-07   -796.41441            0   -796.41441    13146.751 
     933 3.9661629e-07   -796.41442            0   -796.41442    13146.754 
     934 4.2413394e-07   -796.41442            0   -796.41442    13146.758 
     935 4.5234865e-07   -796.41442            0   -796.41442    13146.762 
     936 4.8122485e-07   -796.41442            0   -796.41442    13146.766 
     937 5.1066692e-07   -796.41442            0   -796.41442    13146.771 
     938 5.400781e-07   -796.41442            0   -796.41442    13146.775 
     939 5.6357673e-07   -796.41442            0   -796.41442     13146.78 
     940 5.2322167e-07   -796.41442            0   -796.41442    13146.784 
     941 1.8352682e-07   -796.41443            0   -796.41443    13146.787 
     942 8.4180745e-09   -796.41443            0   -796.41443    13146.787 
     943 1.5047907e-08   -796.41443            0   -796.41443    13146.788 
     944 2.2523954e-08   -796.41443            0   -796.41443    13146.789 
     945 2.9322764e-08   -796.41443            0   -796.41443    13146.789 
     946 3.6568324e-08   -796.41443            0   -796.41443    13146.791 
     947 4.4578962e-08   -796.41443            0   -796.41443    13146.792 
     948 5.3359851e-08   -796.41443            0   -796.41443    13146.793 
     949 6.2902212e-08   -796.41443            0   -796.41443    13146.795 
     950 7.3196545e-08   -796.41443            0   -796.41443    13146.796 
     951 8.423254e-08   -796.41443            0   -796.41443    13146.798 
     952 9.5999095e-08   -796.41443            0   -796.41443      13146.8 
     953 1.0848432e-07   -796.41443            0   -796.41443    13146.802 
     954 1.2167556e-07   -796.41443            0   -796.41443    13146.804 
     955 1.355594e-07   -796.41443            0   -796.41443    13146.806 
     956 1.5012166e-07   -796.41443            0   -796.41443    13146.808 
     957 1.6534746e-07   -796.41443            0   -796.41443     13146.81 
     958 1.8122118e-07   -796.41443            0   -796.41443    13146.813 
     959 1.977265e-07   -796.41443            0   -796.41443    13146.816 
     960 2.1484643e-07   -796.41443            0   -796.41443    13146.818 
     961 2.3256331e-07   -796.41444            0   -796.41444    13146.821 
     962 2.5085882e-07   -796.41444            0   -796.41444    13146.824 
     963 2.6971402e-07   -796.41444            0   -796.41444    13146.828 
     964 2.8910935e-07   -796.41444            0   -796.41444    13146.831 
     965 3.0902466e-07   -796.41444            0   -796.41444    13146.834 
     966 3.2943927e-07   -796.41444            0   -796.41444    13146.838 
     967 3.5033168e-07   -796.41444            0   -796.41444    13146.841 
     968 3.7167975e-07   -796.41444            0   -796.41444    13146.845 
     969 3.9345255e-07   -796.41444            0   -796.41444    13146.849 
     970 4.155533e-07   -796.41444            0   -796.41444    13146.853 
     971 4.370459e-07   -796.41445            0   -796.41445    13146.857 
     972 4.4676878e-07   -796.41445            0   -796.41445    13146.861 
     973 3.3073649e-07   -796.41445            0   -796.41445    13146.865 
     974 2.5742986e-08   -796.41445            0   -796.41445    13146.866 
     975 3.0050829e-08   -796.41445            0   -796.41445    13146.867 
     976 3.6111478e-08   -796.41445            0   -796.41445    13146.868 
     977 4.2713407e-08   -796.41445            0   -796.41445    13146.869 
     978 4.9847234e-08   -796.41445            0   -796.41445     13146.87 
     979 5.7505664e-08   -796.41445            0   -796.41445    13146.872 
     980 6.5680978e-08   -796.41445            0   -796.41445    13146.873 
     981 7.4364884e-08   -796.41445            0   -796.41445    13146.875 
     982 8.3548556e-08   -796.41445            0   -796.41445    13146.877 
     983 9.3222618e-08   -796.41445            0   -796.41445    13146.878 
     984 1.0337718e-07   -796.41445            0   -796.41445     13146.88 
     985 1.140018e-07   -796.41445            0   -796.41445    13146.882 
     986 1.2508558e-07   -796.41445            0   -796.41445    13146.885 
     987 1.3661706e-07   -796.41445            0   -796.41445    13146.887 
     988 1.4858434e-07   -796.41446            0   -796.41446    13146.889 
     989 1.6097498e-07   -796.41446            0   -796.41446    13146.892 
     990 1.7377608e-07   -796.41446            0   -796.41446    13146.894 
     991 1.8697368e-07   -796.41446            0   -796.41446    13146.897 
     992 2.0055142e-07   -796.41446            0   -796.41446      13146.9 
     993 2.144765e-07   -796.41446            0   -796.41446    13146.902 
     994 2.2861284e-07   -796.41446            0   -796.41446    13146.905 
     995 2.4200083e-07   -796.41446            0   -796.41446    13146.909 
     996 2.4696892e-07   -796.41446            0   -796.41446    13146.912 
     997 1.9154822e-07   -796.41446            0   -796.41446    13146.914 
     998 3.6965145e-08   -796.41446            0   -796.41446    13146.915 
     999 1.705365e-08   -796.41446            0   -796.41446    13146.916 
    1000 2.134069e-08   -796.41446            0   -796.41446    13146.917 
    1001 2.5809747e-08   -796.41446            0   -796.41446    13146.918 
    1002 3.0691612e-08   -796.41446            0   -796.41446    13146.919 
    1003 3.5980165e-08   -796.41446            0   -796.41446     13146.92 
    1004 4.1670057e-08   -796.41446            0   -796.41446    13146.921 
    1005 4.7755541e-08   -796.41447            0   -796.41447    13146.923 
    1006 5.4230441e-08   -796.41447            0   -796.41447    13146.924 
    1007 6.1088162e-08   -796.41447            0   -796.41447    13146.926 
    1008 6.8321693e-08   -796.41447            0   -796.41447    13146.927 
    1009 7.5923617e-08   -796.41447            0   -796.41447    13146.929 
    1010 8.3886116e-08   -796.41447            0   -796.41447    13146.931 
    1011 9.2200985e-08   -796.41447            0   -796.41447    13146.933 
    1012 1.0085963e-07   -796.41447            0   -796.41447    13146.935 
    1013 1.0985308e-07   -796.41447            0   -796.41447    13146.937 
    1014 1.1917201e-07   -796.41447            0   -796.41447    13146.939 
    1015 1.2880673e-07   -796.41447            0   -796.41447    13146.941 
    1016 1.3874714e-07   -796.41447            0   -796.41447    13146.943 
    1017 1.4898278e-07   -796.41447            0   -796.41447    13146.946 
[...]
    2065 3.0631253e-06   -796.38119            0   -796.38119    12937.881 
    2066 3.288022e-06   -796.38119            0   -796.38119    12937.886 
    2067 3.5189731e-06   -796.38119            0   -796.38119    12937.891 
    2068 3.7557085e-06   -796.38119            0   -796.38119    12937.896 
    2069 3.9979472e-06    -796.3812            0    -796.3812    12937.901 
    2070 4.2453837e-06    -796.3812            0    -796.3812    12937.907 
    2071 4.4975389e-06    -796.3812            0    -796.3812    12937.912 
    2072 4.7521899e-06    -796.3812            0    -796.3812    12937.918 
    2073 4.9863882e-06   -796.38121            0   -796.38121    12937.925 
    2074 4.9201777e-06   -796.38121            0   -796.38121    12937.931 
    2075 2.4690728e-06   -796.38121            0   -796.38121    12937.935 
    2076 4.9394258e-08   -796.38121            0   -796.38121    12937.935 
    2077 9.2760023e-08   -796.38121            0   -796.38121    12937.936 
    2078 1.5458612e-07   -796.38121            0   -796.38121    12937.937 
    2079 2.0835815e-07   -796.38121            0   -796.38121    12937.939 
    2080 2.6052634e-07   -796.38121            0   -796.38121     12937.94 
    2081 3.1778402e-07   -796.38121            0   -796.38121    12937.942 
    2082 3.8053067e-07   -796.38122            0   -796.38122    12937.943 
    2083 4.4869266e-07   -796.38122            0   -796.38122    12937.945 
    2084 5.2218831e-07   -796.38122            0   -796.38122    12937.947 
    2085 6.0092893e-07   -796.38122            0   -796.38122    12937.949 
    2086 6.8481885e-07   -796.38122            0   -796.38122    12937.952 
    2087 7.7375552e-07   -796.38122            0   -796.38122    12937.954 
    2088 8.6762954e-07   -796.38122            0   -796.38122    12937.957 
    2089 9.6632485e-07   -796.38122            0   -796.38122     12937.96 
    2090 1.0697187e-06   -796.38122            0   -796.38122    12937.963 
    2091 1.1776819e-06   -796.38123            0   -796.38123    12937.966 
    2092 1.2900788e-06   -796.38123            0   -796.38123    12937.969 
    2093 1.4067676e-06   -796.38123            0   -796.38123    12937.973 
    2094   1.5276e-06   -796.38123            0   -796.38123    12937.976 
    2095 1.6524222e-06   -796.38123            0   -796.38123     12937.98 
    2096 1.7810741e-06   -796.38123            0   -796.38123    12937.984 
    2097 1.9133901e-06   -796.38123            0   -796.38123    12937.989 
    2098 2.0491991e-06   -796.38124            0   -796.38124    12937.993 
    2099 2.1883246e-06   -796.38124            0   -796.38124    12937.998 
    2100 2.3305848e-06   -796.38124            0   -796.38124    12938.003 
    2101 2.4757924e-06   -796.38124            0   -796.38124    12938.007 
    2102 2.6237489e-06   -796.38124            0   -796.38124    12938.013 
    2103 2.7741842e-06   -796.38125            0   -796.38125    12938.018 
    2104 2.926045e-06   -796.38125            0   -796.38125    12938.024 
    2105 3.0680882e-06   -796.38125            0   -796.38125    12938.029 
    2106 3.0488539e-06   -796.38125            0   -796.38125    12938.035 
    2107 1.5704026e-06   -796.38125            0   -796.38125     12938.04 
    2108 2.1073196e-08   -796.38126            0   -796.38126     12938.04 
    2109 3.8974396e-08   -796.38126            0   -796.38126     12938.04 
    2110 6.9082568e-08   -796.38126            0   -796.38126    12938.041 
    2111 1.0086484e-07   -796.38126            0   -796.38126    12938.042 
    2112 1.2951128e-07   -796.38126            0   -796.38126    12938.043 
    2113 1.6021543e-07   -796.38126            0   -796.38126    12938.044 
    2114 1.9403561e-07   -796.38126            0   -796.38126    12938.046 
    2115 2.3096045e-07   -796.38126            0   -796.38126    12938.047 
    2116 2.7094115e-07   -796.38126            0   -796.38126    12938.049 
    2117 3.1392458e-07   -796.38126            0   -796.38126    12938.051 
    2118 3.5985328e-07   -796.38126            0   -796.38126    12938.053 
    2119 4.0866546e-07   -796.38126            0   -796.38126    12938.055 
    2120 4.6029512e-07   -796.38126            0   -796.38126    12938.057 
    2121 5.1467207e-07   -796.38126            0   -796.38126    12938.059 
    2122 5.7172204e-07   -796.38126            0   -796.38126    12938.062 
    2123 6.3136677e-07   -796.38126            0   -796.38126    12938.065 
    2124 6.9352404e-07   -796.38127            0   -796.38127    12938.067 
    2125 7.5810782e-07   -796.38127            0   -796.38127     12938.07 
    2126 8.2502836e-07   -796.38127            0   -796.38127    12938.073 
    2127 8.9419227e-07   -796.38127            0   -796.38127    12938.077 
    2128 9.6550263e-07   -796.38127            0   -796.38127     12938.08 
    2129 1.0388592e-06   -796.38127            0   -796.38127    12938.084 
    2130 1.1141583e-06   -796.38127            0   -796.38127    12938.087 
    2131 1.1912932e-06   -796.38127            0   -796.38127    12938.091 
    2132 1.2701542e-06   -796.38128            0   -796.38128    12938.095 
    2133 1.3506283e-06   -796.38128            0   -796.38128    12938.099 
    2134 1.4325967e-06   -796.38128            0   -796.38128    12938.104 
    2135 1.5159049e-06   -796.38128            0   -796.38128    12938.108 
    2136 1.6000366e-06   -796.38128            0   -796.38128    12938.113 
    2137 1.6799075e-06   -796.38128            0   -796.38128    12938.118 
    2138 1.6892458e-06   -796.38129            0   -796.38129    12938.122 
    2139 1.0060369e-06   -796.38129            0   -796.38129    12938.126 
    2140 2.4424083e-08   -796.38129            0   -796.38129    12938.127 
    2141 4.890122e-08   -796.38129            0   -796.38129    12938.127 
    2142 7.2821525e-08   -796.38129            0   -796.38129    12938.128 
    2143 9.0615588e-08   -796.38129            0   -796.38129    12938.129 
    2144 1.0979092e-07   -796.38129            0   -796.38129     12938.13 
    2145 1.3072696e-07   -796.38129            0   -796.38129    12938.132 
    2146 1.533919e-07   -796.38129            0   -796.38129    12938.133 
    2147 1.7775329e-07   -796.38129            0   -796.38129    12938.135 
    2148 2.0377597e-07   -796.38129            0   -796.38129    12938.136 
    2149 2.3142223e-07   -796.38129            0   -796.38129    12938.138 
    2150 2.6065176e-07   -796.38129            0   -796.38129     12938.14 
    2151 2.9142178e-07   -796.38129            0   -796.38129    12938.142 
    2152 3.2368701e-07   -796.38129            0   -796.38129    12938.144 
    2153 3.5739982e-07   -796.38129            0   -796.38129    12938.146 
    2154 3.9251022e-07   -796.38129            0   -796.38129    12938.149 
    2155 4.2896596e-07    -796.3813            0    -796.3813    12938.151 
    2156 4.6671258e-07    -796.3813            0    -796.3813    12938.154 
    2157 5.056935e-07    -796.3813            0    -796.3813    12938.156 
    2158 5.4585008e-07    -796.3813            0    -796.3813    12938.159 
    2159 5.8712173e-07    -796.3813            0    -796.3813    12938.162 
    2160 6.294459e-07    -796.3813            0    -796.3813    12938.165 
    2161 6.7275823e-07    -796.3813            0    -796.3813    12938.168 
    2162 7.1699154e-07    -796.3813            0    -796.3813    12938.172 
    2163 7.6207058e-07    -796.3813            0    -796.3813    12938.175 
    2164 8.0785135e-07    -796.3813            0    -796.3813    12938.179 
    2165 8.5352206e-07   -796.38131            0   -796.38131    12938.182 
    2166 8.9057392e-07   -796.38131            0   -796.38131    12938.186 
    2167 8.2357349e-07   -796.38131            0   -796.38131     12938.19 
    2168 2.4562732e-07   -796.38131            0   -796.38131    12938.192 
    2169 6.3292031e-09   -796.38131            0   -796.38131    12938.192 
    2170 1.1333809e-08   -796.38131            0   -796.38131    12938.192 
    2171 1.8945687e-08   -796.38131            0   -796.38131    12938.193 
    2172 2.7505363e-08   -796.38131            0   -796.38131    12938.193 
    2173 3.6124012e-08   -796.38131            0   -796.38131    12938.194 
    2174 4.5482936e-08   -796.38131            0   -796.38131    12938.195 
    2175 5.5853702e-08   -796.38131            0   -796.38131    12938.196 
    2176 6.7245137e-08   -796.38131            0   -796.38131    12938.197 
    2177 7.9640317e-08   -796.38131            0   -796.38131    12938.198 
    2178 9.3020483e-08   -796.38131            0   -796.38131    12938.199 
    2179 1.0736526e-07   -796.38131            0   -796.38131      12938.2 
    2180 1.2265269e-07   -796.38131            0   -796.38131    12938.202 
    2181 1.3885922e-07   -796.38131            0   -796.38131    12938.203 
    2182 1.559598e-07   -796.38131            0   -796.38131    12938.205 
    2183 1.7392786e-07   -796.38131            0   -796.38131    12938.206 
    2184 1.9273538e-07   -796.38131            0   -796.38131    12938.208 
    2185 2.1235293e-07   -796.38131            0   -796.38131     12938.21 
    2186 2.3274967e-07   -796.38132            0   -796.38132    12938.212 
    2187 2.5389345e-07   -796.38132            0   -796.38132    12938.214 
    2188 2.7575084e-07   -796.38132            0   -796.38132    12938.216 
    2189 2.9828715e-07   -796.38132            0   -796.38132    12938.218 
    2190 3.2146652e-07   -796.38132            0   -796.38132    12938.221 
    2191 3.4525194e-07   -796.38132            0   -796.38132    12938.223 
    2192 3.6960535e-07   -796.38132            0   -796.38132    12938.226 
    2193 3.9448762e-07   -796.38132            0   -796.38132    12938.228 
    2194 4.1985876e-07   -796.38132            0   -796.38132    12938.231 
    2195 4.4567747e-07   -796.38132            0   -796.38132    12938.234 
    2196 4.7190099e-07   -796.38132            0   -796.38132    12938.237 
    2197 4.9846877e-07   -796.38132            0   -796.38132     12938.24 
    2198 5.251415e-07   -796.38132            0   -796.38132    12938.243 
    2199 5.4914518e-07   -796.38133            0   -796.38133    12938.246 
    2200 5.3196737e-07   -796.38133            0   -796.38133    12938.249 
    2201 2.0288341e-07   -796.38133            0   -796.38133    12938.251 
    2202 1.0024997e-09   -796.38133            0   -796.38133    12938.251 
    2203 1.8859649e-09   -796.38133            0   -796.38133    12938.251 
    2204 3.4258227e-09   -796.38133            0   -796.38133    12938.251 
    2205 6.1190219e-09   -796.38133            0   -796.38133    12938.252 
    2206 1.0140839e-08   -796.38133            0   -796.38133    12938.252 
    2207 1.4621677e-08   -796.38133            0   -796.38133    12938.253 
    2208 1.9173551e-08   -796.38133            0   -796.38133    12938.253 
    2209 2.4137347e-08   -796.38133            0   -796.38133    12938.254 
    2210 2.9638737e-08   -796.38133            0   -796.38133    12938.254 
    2211 3.5680027e-08   -796.38133            0   -796.38133    12938.255 
    2212 4.2251717e-08   -796.38133            0   -796.38133    12938.256 
    2213  4.93433e-08   -796.38133            0   -796.38133    12938.257 
    2214 5.6943373e-08   -796.38133            0   -796.38133    12938.258 
    2215 6.503965e-08   -796.38133            0   -796.38133    12938.259 
    2216 7.3618978e-08   -796.38133            0   -796.38133     12938.26 
    2217 8.2667353e-08   -796.38133            0   -796.38133    12938.261 
    2218 9.2169948e-08   -796.38133            0   -796.38133    12938.263 
    2219 1.0211113e-07   -796.38133            0   -796.38133    12938.264 
    2220 1.1247449e-07   -796.38133            0   -796.38133    12938.266 
    2221 1.2324286e-07   -796.38133            0   -796.38133    12938.267 
    2222 1.3439835e-07   -796.38133            0   -796.38133    12938.269 
    2223 1.4592236e-07   -796.38133            0   -796.38133     12938.27 
    2224 1.5779563e-07   -796.38133            0   -796.38133    12938.272 
    2225 1.6999826e-07   -796.38133            0   -796.38133    12938.274 
    2226 1.8250974e-07   -796.38133            0   -796.38133    12938.276 
    2227 1.9530897e-07   -796.38134            0   -796.38134    12938.278 
    2228 2.0837437e-07   -796.38134            0   -796.38134     12938.28 
    2229 2.2168372e-07   -796.38134            0   -796.38134    12938.282 
    2230 2.3521451e-07   -796.38134            0   -796.38134    12938.284 
    2231 2.4894222e-07   -796.38134            0   -796.38134    12938.286 
    2232 2.6283369e-07   -796.38134            0   -796.38134    12938.289 
    2233 2.7672075e-07   -796.38134            0   -796.38134    12938.291 
    2234 2.8865719e-07   -796.38134            0   -796.38134    12938.293 
    2235 2.7105835e-07   -796.38134            0   -796.38134    12938.296 
    2236 7.5051614e-08   -796.38134            0   -796.38134    12938.297 
    2237 3.7118058e-10   -796.38134            0   -796.38134    12938.297 
    2238 7.5534249e-10   -796.38134            0   -796.38134    12938.297 
    2239 1.4073741e-09   -796.38134            0   -796.38134    12938.297 
    2240 2.5281601e-09   -796.38134            0   -796.38134    12938.297 
    2241 4.2755431e-09   -796.38134            0   -796.38134    12938.298 
    2242 6.4212865e-09   -796.38134            0   -796.38134    12938.298 
    2243 8.6714147e-09   -796.38134            0   -796.38134    12938.298 
    2244 1.1104922e-08   -796.38134            0   -796.38134    12938.299 
    2245 1.3809548e-08   -796.38134            0   -796.38134    12938.299 
    2246 1.6796138e-08   -796.38134            0   -796.38134      12938.3 
    2247 2.0060332e-08   -796.38134            0   -796.38134      12938.3 
    2248 2.3596704e-08   -796.38134            0   -796.38134    12938.301 
    2249 2.7399322e-08   -796.38134            0   -796.38134    12938.302 
    2250 3.1461769e-08   -796.38134            0   -796.38134    12938.303 
    2251 3.5777156e-08   -796.38134            0   -796.38134    12938.303 
    2252 4.0338129e-08   -796.38134            0   -796.38134    12938.304 
    2253 4.5136884e-08   -796.38134            0   -796.38134    12938.305 
    2254 5.016518e-08   -796.38134            0   -796.38134    12938.306 
    2255 5.5414349e-08   -796.38134            0   -796.38134    12938.307 
    2256 6.0875313e-08   -796.38134            0   -796.38134    12938.309 
    2257  6.65386e-08   -796.38134            0   -796.38134     12938.31 
    2258 7.2394356e-08   -796.38134            0   -796.38134    12938.311 
    2259 7.8432365e-08   -796.38135            0   -796.38135    12938.312 
    2260 8.4642062e-08   -796.38135            0   -796.38135    12938.314 
    2261 9.101256e-08   -796.38135            0   -796.38135    12938.315 
    2262 9.7532651e-08   -796.38135            0   -796.38135    12938.316 
    2263 1.0419086e-07   -796.38135            0   -796.38135    12938.318 
    2264 1.1097539e-07   -796.38135            0   -796.38135     12938.32 
    2265 1.1787431e-07   -796.38135            0   -796.38135    12938.321 
    2266 1.2487508e-07   -796.38135            0   -796.38135    12938.323 
    2267 1.3196543e-07   -796.38135            0   -796.38135    12938.325 
    2268 1.3912301e-07   -796.38135            0   -796.38135    12938.326 
    2269 1.4624769e-07   -796.38135            0   -796.38135    12938.328 
    2270 1.5185924e-07   -796.38135            0   -796.38135     12938.33 
    2271 1.3507159e-07   -796.38135            0   -796.38135    12938.332 
    2272 2.140341e-08   -796.38135            0   -796.38135    12938.333 
    2273 6.6830592e-10   -796.38135            0   -796.38135    12938.333 
    2274 1.2017205e-09   -796.38135            0   -796.38135    12938.333 
    2275 2.0091968e-09   -796.38135            0   -796.38135    12938.333 
    2276 3.0097649e-09   -796.38135            0   -796.38135    12938.333 
    2277 4.0944232e-09   -796.38135            0   -796.38135    12938.333 
    2278 5.2825989e-09   -796.38135            0   -796.38135    12938.334 
    2279 6.6075622e-09   -796.38135            0   -796.38135    12938.334 
    2280 8.0744314e-09   -796.38135            0   -796.38135    12938.334 
    2281 9.6809971e-09   -796.38135            0   -796.38135    12938.335 
    2282 1.1424453e-08   -796.38135            0   -796.38135    12938.335 
    2283 1.3301758e-08   -796.38135            0   -796.38135    12938.336 
    2284 1.530962e-08   -796.38135            0   -796.38135    12938.336 
    2285 1.7444498e-08   -796.38135            0   -796.38135    12938.337 
    2286 1.9702611e-08   -796.38135            0   -796.38135    12938.338 
    2287 2.2079943e-08   -796.38135            0   -796.38135    12938.338 
    2288 2.4572248e-08   -796.38135            0   -796.38135    12938.339 
    2289 2.7175061e-08   -796.38135            0   -796.38135     12938.34 
    2290 2.9883704e-08   -796.38135            0   -796.38135    12938.341 
    2291 3.2693293e-08   -796.38135            0   -796.38135    12938.342 
    2292 3.5598748e-08   -796.38135            0   -796.38135    12938.343 
    2293  3.85948e-08   -796.38135            0   -796.38135    12938.343 
    2294 4.1676004e-08   -796.38135            0   -796.38135    12938.344 
    2295 4.4836745e-08   -796.38135            0   -796.38135    12938.345 
    2296 4.8071249e-08   -796.38135            0   -796.38135    12938.347 
    2297 5.1373595e-08   -796.38135            0   -796.38135    12938.348 
    2298 5.4737725e-08   -796.38136            0   -796.38136    12938.349 
    2299 5.8157453e-08   -796.38136            0   -796.38136     12938.35 
    2300 6.1626482e-08   -796.38136            0   -796.38136    12938.351 
    2301 6.5138401e-08   -796.38136            0   -796.38136    12938.352 
    2302 6.8686679e-08   -796.38136            0   -796.38136    12938.354 
    2303 7.2264279e-08   -796.38136            0   -796.38136    12938.355 
    2304 7.5856822e-08   -796.38136            0   -796.38136    12938.356 
    2305 7.9334093e-08   -796.38136            0   -796.38136    12938.358 
    2306 8.0415866e-08   -796.38136            0   -796.38136    12938.358 
    2307 4.9455144e-08   -796.38136            0   -796.38136    12938.362 
    2308 8.2355491e-11   -796.38136            0   -796.38136    12938.362 
Loop time of 421.229 on 16 procs for 842 steps with 127 atoms

99.1% CPU use with 16 MPI tasks x no OpenMP threads

Minimization stats:
  Stopping criterion = energy tolerance
  Energy initial, next-to-last, final = 
          -796.4145567     -796.381358157     -796.381358159
  Force two-norm initial, final = 5.44183e-06 3.96966e-05
  Force max component initial, final = 3.51593e-06 1.77115e-05
  Final line search alpha, max atom move = 0 0
  Iterations, force evaluations = 842 842

MPI task timing breakdown:
Section |  min time  |  avg time  |  max time  |%varavg| %total
---------------------------------------------------------------
Pair    | 224.26     | 255.2      | 266.11     |  57.0 | 60.59
Neigh   | 0          | 0          | 0          |   0.0 |  0.00
Comm    | 0.060488   | 10.97      | 41.911     | 274.9 |  2.60
Output  | 0.12954    | 0.13189    | 0.13573    |   0.4 |  0.03
Modify  | 96.824     | 96.825     | 96.826     |   0.0 | 22.99
Other   |            | 58.1       |            |       | 13.79

Nlocal:    7.9375 ave 8 max 7 min
Histogram: 1 0 0 0 0 0 0 0 0 15
Nghost:    817.062 ave 821 max 816 min
Histogram: 12 0 0 0 0 0 0 0 3 1
Neighs:    0 ave 0 max 0 min
Histogram: 16 0 0 0 0 0 0 0 0 0
FullNghs:  1602.12 ave 1631 max 1419 min
Histogram: 1 0 0 0 0 0 0 0 6 9

Total # of neighbors = 25634
Ave neighs/atom = 201.843
Neighbor list builds = 0
Dangerous builds = 0
Total wall time: 0:19:23
