LAMMPS (12 Dec 2018)
Processor partition = 0
units         metal
atom_style    atomic
neighbor      1.0 bin
neigh_modify  every 1 delay 0 check yes

boundary        p p p
atom_modify map array sort 0 0.0
variable	u uloop 8

read_data   initial.lammps
  orthogonal box = (0 0 0) to (10.0025 12.3537 10.615)
  2 by 4 by 2 MPI processor grid
  reading atoms ...
  127 atoms
pair_style  nnp3v
pair_coeff  * * lammps-force.nnp Li P O
Reading potential file lammps-force.nnp with DATE: 20201105
min_style   quickmin
minimize    1.0e-6 1.0e-4 1000 10000
Neighbor list info ...
  update every 1 steps, delay 0 steps, check yes
  max neighbors/atom: 2000, page size: 100000
  master list distance cutoff = 8
  ghost atom cutoff = 8
  binsize = 4, bins = 3 4 3
  1 neighbor lists, perpetual/occasional/extra = 1 0 0
  (1) pair nnp3v, perpetual
      attributes: full, newton on
      pair build: full/bin/atomonly
      stencil: full/bin/3d
      bin: standard
Per MPI rank memory allocation (min/avg/max) = 2.736 | 2.736 | 2.736 Mbytes
Step Temp E_pair E_mol TotEng Press 
       0            0   -796.68047            0   -796.68047     13401.66 
       6  0.092325754   -796.68154            0   -796.68004    13408.421 
Loop time of 2.38826 on 16 procs for 6 steps with 127 atoms

98.9% CPU use with 16 MPI tasks x no OpenMP threads

Minimization stats:
  Stopping criterion = energy tolerance
  Energy initial, next-to-last, final = 
        -796.680469343     -796.681189813     -796.681544239
  Force two-norm initial, final = 0.292034 0.283352
  Force max component initial, final = 0.0445202 0.0435203
  Final line search alpha, max atom move = 0 0
  Iterations, force evaluations = 6 6

MPI task timing breakdown:
Section |  min time  |  avg time  |  max time  |%varavg| %total
---------------------------------------------------------------
Pair    | 1.9897     | 2.2798     | 2.3761     |   5.7 | 95.46
Neigh   | 0          | 0          | 0          |   0.0 |  0.00
Comm    | 0.011738   | 0.10796    | 0.39812    |  26.4 |  4.52
Output  | 0          | 0          | 0          |   0.0 |  0.00
Modify  | 0          | 0          | 0          |   0.0 |  0.00
Other   |            | 0.0004618  |            |       |  0.02

Nlocal:    7.9375 ave 8 max 7 min
Histogram: 1 0 0 0 0 0 0 0 0 15
Nghost:    819.812 ave 824 max 816 min
Histogram: 4 0 0 0 0 8 0 1 1 2
Neighs:    0 ave 0 max 0 min
Histogram: 16 0 0 0 0 0 0 0 0 0
FullNghs:  1602 ave 1623 max 1420 min
Histogram: 1 0 0 0 0 0 0 0 1 14

Total # of neighbors = 25632
Ave neighs/atom = 201.827
Neighbor list builds = 0
Dangerous builds = 0

reset_timestep	0

#timestep   0.001
#velocity   all create 1000 87287

dump   1 all atom 1 dump.neb.$u
dump   1 all atom 1 dump.neb.1
fix    2 all neb 1.0 parallel neigh
dump   2 all atom 1 test.dump

thermo          1
neb 0.00000000001 0.0 10000 5000 1 final final.lammps
Per MPI rank memory allocation (min/avg/max) = 4.736 | 4.737 | 4.737 Mbytes
Step Temp E_pair E_mol TotEng Press 
       0            0   -796.68154            0   -796.68154    13407.197 
       1 0.0021307764   -796.68154            0   -796.68151    13407.225 
       2  0.010363163   -796.68162            0   -796.68145    13407.753 
       3  0.030032429    -796.6818            0   -796.68131    13408.953 
       4  0.079357728   -796.68212            0   -796.68083    13411.321 
       5   0.20586342   -796.68267            0   -796.67932    13415.923 
       6   0.50076271   -796.68354            0   -796.67539    13424.495 
       7    1.1022997   -796.68485            0   -796.66689    13439.383 
       8     2.149864   -796.68664            0   -796.65162    13462.875 
       9     3.741388   -796.68892            0   -796.62799    13496.748 
      10    5.8057871   -796.69165            0   -796.59709    13540.145 
      11      5.45163   -796.69414            0   -796.60535    13551.258 
      12  0.046087062   -796.69433            0   -796.69358    13480.781 
      13  0.090635961   -796.69461            0   -796.69314    13483.183 
      14   0.17158925   -796.69501            0   -796.69222    13486.857 
      15   0.23918353   -796.69548            0   -796.69158    13490.881 
      16   0.29415774     -796.696            0    -796.6912    13495.104 
      17   0.35480049   -796.69656            0   -796.69078    13499.765 
      18   0.42200409   -796.69717            0    -796.6903    13504.882 
      19   0.49590442   -796.69782            0   -796.68974    13510.462 
      20     0.576579   -796.69851            0   -796.68912    13516.509 
      21    0.6640344   -796.69924            0   -796.68843    13523.023 
      22    0.7582089   -796.70001            0   -796.68766    13530.007 
      23   0.85896748   -796.70081            0   -796.68682    13537.457 
      24   0.96611275   -796.70164            0    -796.6859    13545.367 
      25    1.0793917   -796.70249            0   -796.68491    13553.726 
      26    1.1985056   -796.70336            0   -796.68384    13562.526 
      27    1.3231095   -796.70425            0    -796.6827    13571.753 
      28    1.4528353   -796.70516            0   -796.68149    13581.392 
      29    1.5872708   -796.70607            0   -796.68022    13591.426 
      30    1.7259722   -796.70698            0   -796.67887    13601.831 
      31    1.8684517    -796.7079            0   -796.67747     13612.59 
      32    2.0138989   -796.70881            0   -796.67601    13623.659 
      33    2.1590577   -796.70971            0   -796.67455        13635 
      34     2.249882   -796.71058            0   -796.67394    13645.535 
      35    1.4892642   -796.71126            0   -796.68701     13643.63 
      36 0.0091135112   -796.71131            0   -796.71116    13624.349 
      37  0.017290079   -796.71137            0   -796.71109    13625.031 
      38  0.031966395   -796.71146            0   -796.71094    13626.128 
      39  0.047014488   -796.71157            0    -796.7108    13627.527 
      40  0.058071736   -796.71169            0   -796.71074    13629.059 
      41  0.069084841   -796.71182            0   -796.71069    13630.733 
      42  0.080965416   -796.71196            0   -796.71064    13632.551 
      43  0.093741699   -796.71211            0   -796.71059    13634.509 
      44   0.10739917   -796.71228            0   -796.71053    13636.606 
      45    0.1219211   -796.71245            0   -796.71046    13638.839 
      46     0.137289   -796.71263            0   -796.71039    13641.206 
      47   0.15348288   -796.71281            0   -796.71032    13643.705 
      48     0.170481   -796.71301            0   -796.71023    13646.333 
      49   0.18825994   -796.71322            0   -796.71015    13649.086 
      50   0.20679449   -796.71343            0   -796.71006    13651.962 
      51   0.22605807   -796.71364            0   -796.70996    13654.955 
      52   0.24602241   -796.71387            0   -796.70986    13658.062 
      53   0.26665764   -796.71409            0   -796.70975    13661.278 
      54   0.28793295   -796.71433            0   -796.70964    13664.598 
      55   0.30981637   -796.71457            0   -796.70952    13668.015 
      56   0.33227373   -796.71481            0   -796.70939    13671.524 
      57   0.35527187   -796.71505            0   -796.70926    13675.121 
      58   0.37877693    -796.7153            0   -796.70913      13678.8 
      59   0.40275748   -796.71555            0   -796.70899    13682.555 
      60    0.4271806    -796.7158            0   -796.70884    13686.379 
      61   0.45201391   -796.71605            0   -796.70869    13690.265 
      62   0.47722594    -796.7163            0   -796.70853    13694.205 
      63   0.50279647   -796.71655            0   -796.70836    13698.188 
      64   0.52867978    -796.7168            0   -796.70819    13702.206 
      65    0.5548309   -796.71705            0   -796.70801    13706.255 
      66   0.58020988    -796.7173            0   -796.70785    13710.299 
      67   0.59210711   -796.71754            0    -796.7079    13714.179 
      68   0.42093127   -796.71774            0   -796.71088    13714.747 
      69  0.013391033   -796.71777            0   -796.71755    13709.931 
      70  0.025524582   -796.71782            0    -796.7174    13710.829 
      71  0.029196624   -796.71787            0   -796.71739    13711.617 
      72   0.03357919   -796.71792            0   -796.71737    13712.476 
      73  0.038248647   -796.71797            0   -796.71735     13713.39 
      74  0.043200092   -796.71803            0   -796.71733    13714.358 
      75  0.048427526   -796.71809            0   -796.71731     13715.38 
      76  0.053925424   -796.71816            0   -796.71728    13716.453 
      77  0.059687875   -796.71823            0   -796.71725    13717.577 
      78  0.065708946    -796.7183            0   -796.71723     13718.75 
      79  0.071982489   -796.71837            0    -796.7172     13719.97 
      80  0.078502255   -796.71845            0   -796.71717    13721.235 
      81   0.08526188   -796.71852            0   -796.71714    13722.545 
      82  0.092255058    -796.7186            0    -796.7171    13723.896 
      83  0.099475376   -796.71869            0   -796.71707    13725.287 
      84   0.10691656   -796.71877            0   -796.71703    13726.716 
      85   0.11457235   -796.71886            0   -796.71699    13728.181 
      86   0.12243664   -796.71895            0   -796.71695    13729.679 
      87   0.13050333   -796.71904            0   -796.71691    13731.209 
      88   0.13876692   -796.71913            0   -796.71687    13732.768 
      89   0.14722117   -796.71922            0   -796.71682    13734.353 
      90   0.15586103   -796.71931            0   -796.71677    13735.964 
      91   0.16467354   -796.71941            0   -796.71673    13737.595 
      92   0.17361901    -796.7195            0   -796.71668    13739.251 
      93   0.18233716    -796.7196            0   -796.71663      13740.9 
      94   0.18782417    -796.7197            0   -796.71664    13742.551 
      95   0.16384413   -796.71978            0   -796.71711    13743.548 
      96  0.044291318   -796.71983            0   -796.71911    13742.813 
      97 0.0041197851   -796.71984            0   -796.71977    13742.442 
      98 0.0064585969   -796.71986            0   -796.71975    13742.706 
      99  0.008251301   -796.71987            0   -796.71974    13743.013 
     100 0.0099457917   -796.71989            0   -796.71973    13743.353 
     101  0.011771391   -796.71992            0   -796.71972    13743.726 
     102  0.013744989   -796.71994            0   -796.71971    13744.129 
     103  0.015865372   -796.71996            0   -796.71971    13744.562 
     104  0.018130758   -796.71999            0    -796.7197    13745.024 
     105  0.020539252   -796.72002            0   -796.71968    13745.515 
     106  0.023088857   -796.72005            0   -796.71967    13746.033 
     107  0.025777488   -796.72008            0   -796.71966    13746.579 
     108  0.028602971   -796.72011            0   -796.71965    13747.152 
     109  0.031563047   -796.72015            0   -796.71963    13747.751 
     110  0.034655391   -796.72018            0   -796.71962    13748.375 
     111  0.037877607   -796.72022            0   -796.71961    13749.023 
     112  0.041227233   -796.72026            0   -796.71959    13749.694 
     113  0.044701807    -796.7203            0   -796.71957    13750.389 
     114  0.048298824   -796.72034            0   -796.71956    13751.105 
     115  0.052015738   -796.72039            0   -796.71954    13751.843 
     116  0.055849978   -796.72043            0   -796.71952      13752.6 
     117   0.05979898   -796.72047            0    -796.7195    13753.376 
     118  0.063860307   -796.72052            0   -796.71948    13754.171 
     119  0.068031195   -796.72057            0   -796.71946    13754.982 
     120  0.072309135   -796.72061            0   -796.71944    13755.809 
     121  0.076691517   -796.72066            0   -796.71941    13756.652 
     122  0.081175953   -796.72071            0   -796.71939    13757.508 
     123  0.085759706   -796.72076            0   -796.71936    13758.377 
     124   0.09044098   -796.72081            0   -796.71934    13759.258 
     125  0.095215955   -796.72086            0   -796.71931    13760.151 
     126   0.10008522   -796.72091            0   -796.71928     13761.05 
     127    0.1050312   -796.72096            0   -796.71925    13761.967 
     128   0.11002529   -796.72102            0   -796.71922    13762.866 
     129   0.11440531   -796.72107            0    -796.7192    13763.831 
     130   0.11196368   -796.72112            0    -796.7193    13764.466 
     131  0.057605456   -796.72115            0   -796.72022    13764.681 
     132  0.001562701   -796.72116            0   -796.72113    13763.921 
     133  0.002854826   -796.72117            0   -796.72112    13763.974 
     134 0.0040618051   -796.72118            0   -796.72111    13764.094 
     135 0.0049403656   -796.72118            0    -796.7211    13764.255 
     136 0.0058400439    -796.7212            0    -796.7211    13764.438 
     137 0.0068120085   -796.72121            0    -796.7211    13764.639 
     138 0.0078563802   -796.72122            0   -796.72109    13764.855 
     139 0.0089722042   -796.72123            0   -796.72109    13765.085 
     140  0.010158642   -796.72125            0   -796.72108     13765.33 
     141  0.011414815   -796.72126            0   -796.72108    13765.588 
     142  0.012739802   -796.72128            0   -796.72107     13765.86 
     143  0.014132624   -796.72129            0   -796.72106    13766.146 
     144  0.015592265   -796.72131            0   -796.72106    13766.445 
     145  0.017117662   -796.72133            0   -796.72105    13766.756 
     146  0.018707717   -796.72135            0   -796.72104     13767.08 
     147   0.02036129   -796.72137            0   -796.72103    13767.416 
     148  0.022077203   -796.72139            0   -796.72103    13767.764 
     149  0.023854246   -796.72141            0   -796.72102    13768.124 
     150  0.025691172   -796.72143            0   -796.72101    13768.494 
     151  0.027586714   -796.72145            0     -796.721    13768.876 
     152  0.029539564   -796.72147            0   -796.72099    13769.267 
     153  0.031548411   -796.72149            0   -796.72098    13769.668 
     154  0.033611899   -796.72152            0   -796.72097    13770.079 
     155  0.035728656   -796.72154            0   -796.72096    13770.499 
     156  0.037897295   -796.72156            0   -796.72095    13770.927 
     157  0.040116259   -796.72159            0   -796.72094    13771.364 
     158   0.04238422   -796.72161            0   -796.72092    13771.808 
     159  0.044699827   -796.72164            0   -796.72091     13772.26 
     160  0.047061612   -796.72166            0    -796.7209    13772.718 
     161  0.049468275   -796.72169            0   -796.72088    13773.183 
     162  0.051918107   -796.72172            0   -796.72087    13773.653 
     163  0.054409898   -796.72174            0   -796.72086    13774.131 
     164  0.056936118   -796.72177            0   -796.72084    13774.606 
     165  0.059455414    -796.7218            0   -796.72083     13775.11 
     166  0.061394128   -796.72182            0   -796.72082    13775.522 
     167  0.056156832   -796.72185            0   -796.72093    13776.107 
     168  0.015336389   -796.72186            0   -796.72161    13775.375 
     169 0.00025411864   -796.72186            0   -796.72186    13775.249 
     170 0.00043684527   -796.72186            0   -796.72186     13775.34 
     171 0.00070496843   -796.72187            0   -796.72185    13775.435 
     172 0.0010277004   -796.72187            0   -796.72185    13775.526 
     173 0.0013596273   -796.72187            0   -796.72185    13775.609 
     174 0.0017044897   -796.72188            0   -796.72185    13775.688 
     175 0.0020788733   -796.72188            0   -796.72185     13775.77 
     176 0.0024884736   -796.72189            0   -796.72184    13775.859 
     177 0.0029338803   -796.72189            0   -796.72184    13775.955 
     178 0.0034148028    -796.7219            0   -796.72184    13776.058 
     179 0.0039308695    -796.7219            0   -796.72184     13776.17 
     180  0.004481684   -796.72191            0   -796.72184    13776.289 
     181 0.0050668239   -796.72192            0   -796.72183    13776.415 
     182 0.0056858397   -796.72192            0   -796.72183    13776.548 
     183 0.0063382556   -796.72193            0   -796.72183    13776.689 
     184 0.0070235703   -796.72194            0   -796.72182    13776.837 
     185 0.0077412573   -796.72195            0   -796.72182    13776.992 
     186 0.0084907654   -796.72196            0   -796.72182    13777.154 
     187 0.0092715212   -796.72196            0   -796.72181    13777.322 
     188  0.010082926   -796.72197            0   -796.72181    13777.497 
     189  0.010924358   -796.72198            0   -796.72181    13777.678 
     190  0.011795181   -796.72199            0    -796.7218    13777.865 
     191   0.01269473     -796.722            0    -796.7218    13778.059 
     192  0.013622325   -796.72201            0   -796.72179    13778.258 
     193  0.014577264   -796.72203            0   -796.72179    13778.463 
     194  0.015558829   -796.72204            0   -796.72178    13778.674 
     195  0.016566291   -796.72205            0   -796.72178    13778.889 
     196  0.017598905   -796.72206            0   -796.72177     13779.11 
     197  0.018655905   -796.72207            0   -796.72177    13779.335 
     198  0.019736501   -796.72208            0   -796.72176    13779.565 
     199  0.020839927    -796.7221            0   -796.72176      13779.8 
     200  0.021965334   -796.72211            0   -796.72175    13780.039 
     201   0.02311201   -796.72212            0   -796.72174    13780.282 
     202  0.024278903   -796.72213            0   -796.72174    13780.529 
     203  0.025465631   -796.72215            0   -796.72173     13780.78 
     204  0.026669075   -796.72216            0   -796.72172    13781.035 
     205   0.02788286   -796.72217            0   -796.72172    13781.292 
     206  0.028990662   -796.72219            0   -796.72171    13781.553 
     207  0.028774002    -796.7222            0   -796.72173    13781.784 
     208  0.016891489   -796.72221            0   -796.72193    13781.821 
     209 0.00054269421   -796.72221            0    -796.7222     13781.63 
     210 0.0010538314   -796.72221            0   -796.72219    13781.675 
     211 0.0013539683   -796.72221            0   -796.72219    13781.727 
     212 0.0015925357   -796.72222            0   -796.72219    13781.782 
     213 0.0018487671   -796.72222            0   -796.72219    13781.842 
     214 0.0021233964   -796.72222            0   -796.72219    13781.907 
     215 0.0024161468   -796.72223            0   -796.72219    13781.976 
     216 0.0027267728   -796.72223            0   -796.72219    13782.049 
     217 0.0030550191   -796.72223            0   -796.72218    13782.127 
     218 0.0034006181   -796.72224            0   -796.72218    13782.208 
     219 0.0037632831   -796.72224            0   -796.72218    13782.294 
     220 0.0041427151   -796.72225            0   -796.72218    13782.384 
     221 0.0045386008   -796.72225            0   -796.72218    13782.478 
     222 0.0049506143   -796.72226            0   -796.72218    13782.576 
     223 0.0053784151   -796.72226            0   -796.72217    13782.677 
     224 0.0058216503   -796.72227            0   -796.72217    13782.782 
     225 0.0062799546   -796.72227            0   -796.72217    13782.891 
     226 0.0067529508   -796.72228            0   -796.72217    13783.004 
     227 0.0072402499   -796.72228            0   -796.72216     13783.12 
     228 0.0077414518   -796.72229            0   -796.72216    13783.239 
     229 0.0082561459   -796.72229            0   -796.72216    13783.362 
     230 0.0087839114    -796.7223            0   -796.72216    13783.488 
     231 0.0093243179   -796.72231            0   -796.72215    13783.618 
     232 0.0098769261   -796.72231            0   -796.72215     13783.75 
     233  0.010441287   -796.72232            0   -796.72215    13783.885 
     234  0.011016945   -796.72233            0   -796.72215    13784.023 
     235   0.01160344   -796.72233            0   -796.72214    13784.164 
     236  0.012200302   -796.72234            0   -796.72214    13784.307 
     237  0.012807042   -796.72234            0   -796.72214    13784.453 
     238  0.013423106   -796.72235            0   -796.72213    13784.601 
     239  0.014047196   -796.72236            0   -796.72213    13784.752 
     240  0.014670707   -796.72237            0   -796.72213    13784.905 
     241  0.015198605   -796.72237            0   -796.72212    13785.056 
     242  0.014523119   -796.72238            0   -796.72214    13785.192 
     243 0.0060097258   -796.72238            0   -796.72228    13785.158 
     244 9.3296598e-05   -796.72238            0   -796.72238    13785.091 
     245 0.00016949674   -796.72238            0   -796.72238    13785.107 
     246 0.00028158304   -796.72238            0   -796.72238    13785.128 
     247 0.00039424484   -796.72239            0   -796.72238    13785.152 
     248 0.00049616885   -796.72239            0   -796.72238    13785.177 
     249 0.00060209101   -796.72239            0   -796.72238    13785.205 
     250 0.00071723883   -796.72239            0   -796.72238    13785.236 
     251 0.00084211206   -796.72239            0   -796.72238     13785.27 
     252 0.00097662758   -796.72239            0   -796.72238    13785.306 
     253  0.001120669   -796.72239            0   -796.72238    13785.344 
     254  0.001274111    -796.7224            0   -796.72238    13785.386 
     255 0.0014368195    -796.7224            0   -796.72237     13785.43 
     256 0.0016086521    -796.7224            0   -796.72237    13785.476 
     257 0.0017894578    -796.7224            0   -796.72237    13785.525 
     258 0.0019790775    -796.7224            0   -796.72237    13785.577 
     259 0.0021773442   -796.72241            0   -796.72237    13785.631 
     260  0.002384083   -796.72241            0   -796.72237    13785.687 
     261 0.0025991115   -796.72241            0   -796.72237    13785.746 
     262 0.0028222396   -796.72241            0   -796.72237    13785.807 
     263 0.0030532701   -796.72242            0   -796.72237     13785.87 
     264 0.0032919987   -796.72242            0   -796.72237    13785.936 
     265 0.0035382142   -796.72242            0   -796.72236    13786.004 
     266 0.0037916991   -796.72243            0   -796.72236    13786.074 
     267 0.0040522291   -796.72243            0   -796.72236    13786.146 
     268 0.0043195741   -796.72243            0   -796.72236     13786.22 
     269  0.004593498   -796.72243            0   -796.72236    13786.296 
     270 0.0048737592   -796.72244            0   -796.72236    13786.374 
     271 0.0051601108   -796.72244            0   -796.72236    13786.454 
     272 0.0054523007   -796.72244            0   -796.72236    13786.536 
     273  0.005750062   -796.72245            0   -796.72235     13786.62 
     274 0.0060531332   -796.72245            0   -796.72235    13786.706 
     275 0.0063612578   -796.72245            0   -796.72235    13786.793 
     276 0.0066741674   -796.72246            0   -796.72235    13786.881 
     277  0.006991585   -796.72246            0   -796.72235    13786.972 
     278 0.0073132097   -796.72246            0   -796.72235    13787.064 
     279 0.0076384599   -796.72247            0   -796.72234    13787.157 
     280 0.0079638923   -796.72247            0   -796.72234    13787.252 
     281 0.0082497856   -796.72248            0   -796.72234    13787.347 
     282 0.0079969591   -796.72248            0   -796.72235    13787.432 
     283 0.0036438775   -796.72248            0   -796.72242    13787.436 
     284 4.3177251e-05   -796.72248            0   -796.72248    13787.393 
     285 7.9054727e-05   -796.72248            0   -796.72248    13787.401 
     286 0.00013521867   -796.72248            0   -796.72248    13787.412 
     287 0.00019495028   -796.72248            0   -796.72248    13787.425 
     288 0.00024752732   -796.72248            0   -796.72248     13787.44 
     289 0.00030087731   -796.72248            0   -796.72248    13787.457 
     290 0.00035868933   -796.72248            0   -796.72248    13787.476 
     291 0.00042138516   -796.72248            0   -796.72248    13787.496 
     292 0.00048892948   -796.72249            0   -796.72248    13787.518 
     293 0.00056126026   -796.72249            0   -796.72248    13787.541 
     294 0.00063831063   -796.72249            0   -796.72248    13787.566 
     295 0.00072000909   -796.72249            0   -796.72248    13787.592 
     296 0.00080627959   -796.72249            0   -796.72248     13787.62 
     297 0.00089704158   -796.72249            0   -796.72248     13787.65 
     298 0.00099221009   -796.72249            0   -796.72248    13787.681 
     299 0.0010916958   -796.72249            0   -796.72247    13787.713 
     300 0.0011954052   -796.72249            0   -796.72247    13787.747 
     301 0.0013032406    -796.7225            0   -796.72247    13787.783 
     302 0.0014151003    -796.7225            0   -796.72247     13787.82 
     303 0.0015308785    -796.7225            0   -796.72247    13787.858 
     304 0.0016504658    -796.7225            0   -796.72247    13787.898 
     305 0.0017737487    -796.7225            0   -796.72247    13787.939 
     306 0.0019006104    -796.7225            0   -796.72247    13787.982 
     307 0.0020309308    -796.7225            0   -796.72247    13788.025 
     308 0.0021645854    -796.7225            0   -796.72247     13788.07 
     309 0.0023014466   -796.72251            0   -796.72247    13788.117 
     310 0.0024413872   -796.72251            0   -796.72247    13788.164 
     311 0.0025842722   -796.72251            0   -796.72247    13788.212 
     312 0.0027299652   -796.72251            0   -796.72247    13788.262 
     313 0.0028783265   -796.72251            0   -796.72247    13788.313 
     314 0.0030292144   -796.72251            0   -796.72247    13788.365 
     315 0.0031824829   -796.72252            0   -796.72246    13788.417 
     316 0.0033379913   -796.72252            0   -796.72246    13788.471 
     317 0.0034955704   -796.72252            0   -796.72246    13788.526 
     318 0.0036551346   -796.72252            0   -796.72246    13788.582 
     319 0.0038163159   -796.72252            0   -796.72246    13788.639 
     320 0.0039799522   -796.72253            0   -796.72246    13788.696 
     321 0.0041452335   -796.72253            0   -796.72246    13788.755 
     322 0.0043543026   -796.72253            0   -796.72246    13788.811 
     323 0.0049933947   -796.72253            0   -796.72245    13788.886 
     324  0.007640658   -796.72253            0   -796.72241    13788.949 
     325 0.00021383876   -796.72253            0   -796.72253    13788.851 
     326 0.00025233979   -796.72253            0   -796.72253    13788.854 
     327 0.00022853941   -796.72253            0   -796.72253     13788.86 
     328 0.00015562979   -796.72253            0   -796.72253    13788.868 
     329 0.00012051156   -796.72253            0   -796.72253    13788.877 
     330 0.00013203216   -796.72253            0   -796.72253    13788.888 
     331 0.00015748158   -796.72253            0   -796.72253    13788.899 
     332 0.00018653938   -796.72253            0   -796.72253    13788.911 
     333 0.00021800637   -796.72253            0   -796.72253    13788.923 
     334 0.00025181328   -796.72253            0   -796.72253    13788.936 
     335 0.00028792914   -796.72253            0   -796.72253    13788.951 
     336 0.00032631817   -796.72254            0   -796.72253    13788.966 
     337 0.00036694245   -796.72254            0   -796.72253    13788.982 
     338 0.00040976172   -796.72254            0   -796.72253        13789 
     339 0.0004547334   -796.72254            0   -796.72253    13789.018 
     340 0.00050181265   -796.72254            0   -796.72253    13789.037 
     341 0.00055095235   -796.72254            0   -796.72253    13789.057 
     342 0.00060210317   -796.72254            0   -796.72253    13789.078 
     343  0.000655214   -796.72254            0   -796.72253    13789.099 
     344 0.00071023148   -796.72254            0   -796.72253    13789.122 
     345 0.00076709991   -796.72254            0   -796.72253    13789.145 
     346 0.00082576107   -796.72254            0   -796.72253    13789.169 
     347 0.00088615552   -796.72254            0   -796.72253    13789.194 
     348 0.00094822137   -796.72254            0   -796.72253     13789.22 
     349 0.0010118954   -796.72254            0   -796.72253    13789.247 
     350 0.0010771118   -796.72254            0   -796.72253    13789.274 
     351 0.0011438039   -796.72254            0   -796.72253    13789.302 
     352 0.0012119021   -796.72255            0   -796.72253    13789.331 
     353  0.001281338   -796.72255            0   -796.72253     13789.36 
     354 0.0013520371   -796.72255            0   -796.72252    13789.391 
     355 0.0014239285   -796.72255            0   -796.72252    13789.421 
     356 0.0014969277   -796.72255            0   -796.72252    13789.453 
     357 0.0015709739   -796.72255            0   -796.72252    13789.485 
     358 0.0016459589   -796.72255            0   -796.72252    13789.517 
     359 0.0017218652   -796.72255            0   -796.72252    13789.551 
     360 0.0017985037   -796.72255            0   -796.72252    13789.584 
     361 0.0018762102   -796.72255            0   -796.72252    13789.621 
     362 0.0019567127   -796.72255            0   -796.72252    13789.649 
     363 0.0020684008   -796.72255            0   -796.72252    13789.708 
     364 0.0025575734   -796.72255            0   -796.72251    13789.679 
     365 0.0031799751   -796.72256            0    -796.7225    13789.815 
     366 4.4166489e-05   -796.72256            0   -796.72255    13789.766 
     367 6.2699728e-05   -796.72256            0   -796.72255    13789.757 
     368 7.0528887e-05   -796.72256            0   -796.72255    13789.748 
     369 6.2664228e-05   -796.72256            0   -796.72255     13789.74 
     370 5.0979758e-05   -796.72256            0   -796.72256    13789.736 
     371 5.0385601e-05   -796.72256            0   -796.72256    13789.736 
     372 5.9071656e-05   -796.72256            0   -796.72256    13789.739 
     373 7.1384562e-05   -796.72256            0   -796.72256    13789.744 
     374 8.5264583e-05   -796.72256            0   -796.72256    13789.751 
     375 0.00010036216   -796.72256            0   -796.72256    13789.759 
     376 0.00011663584   -796.72256            0   -796.72255    13789.767 
     377 0.0001340687   -796.72256            0   -796.72255    13789.775 
     378 0.00015264313   -796.72256            0   -796.72255    13789.784 
     379 0.00017233981   -796.72256            0   -796.72255    13789.794 
     380 0.00019313808   -796.72256            0   -796.72255    13789.805 
     381 0.00021501599   -796.72256            0   -796.72255    13789.816 
     382 0.00023795037   -796.72256            0   -796.72255    13789.827 
     383 0.00026191682   -796.72256            0   -796.72255    13789.839 
     384 0.00028688974   -796.72256            0   -796.72255    13789.852 
     385 0.00031284234   -796.72256            0   -796.72255    13789.865 
     386 0.00033974667   -796.72256            0   -796.72255    13789.879 
     387 0.00036757363   -796.72256            0   -796.72255    13789.894 
     388 0.00039629296   -796.72256            0   -796.72255    13789.909 
     389 0.00042587336   -796.72256            0   -796.72255    13789.924 
     390 0.00045628237   -796.72256            0   -796.72255     13789.94 
     391 0.00048748648   -796.72256            0   -796.72255    13789.956 
     392 0.00051945111   -796.72256            0   -796.72255    13789.973 
     393 0.00055214065   -796.72256            0   -796.72255    13789.991 
     394 0.00058551853   -796.72256            0   -796.72255    13790.009 
     395 0.00061954712   -796.72256            0   -796.72255    13790.027 
     396 0.00065418773   -796.72256            0   -796.72255    13790.046 
     397 0.00068940075   -796.72256            0   -796.72255    13790.066 
     398 0.00072514556   -796.72256            0   -796.72255    13790.085 
     399 0.00076138067   -796.72256            0   -796.72255    13790.106 
     400 0.00079806338   -796.72256            0   -796.72255    13790.126 
     401 0.0008351505   -796.72257            0   -796.72255    13790.147 
     402 0.00087259548   -796.72257            0   -796.72255    13790.169 
     403 0.0009103467   -796.72257            0   -796.72255    13790.191 
     404 0.00094824011   -796.72257            0   -796.72255    13790.213 
     405 0.00098495323   -796.72257            0   -796.72255    13790.237 
     406 0.0010029318   -796.72257            0   -796.72255    13790.253 
     407 0.00079865229   -796.72257            0   -796.72255     13790.29 
     408 7.8651179e-05   -796.72257            0   -796.72257    13790.267 
     409 3.6067452e-05   -796.72257            0   -796.72257    13790.274 
     410 4.3711965e-05   -796.72257            0   -796.72257    13790.279 
     411 5.1437361e-05   -796.72257            0   -796.72257    13790.284 
     412 5.976093e-05   -796.72257            0   -796.72257    13790.289 
     413 6.867454e-05   -796.72257            0   -796.72257    13790.295 
     414 7.8168231e-05   -796.72257            0   -796.72257    13790.301 
     415 8.8231429e-05   -796.72257            0   -796.72257    13790.307 
     416 9.8852857e-05   -796.72257            0   -796.72257    13790.314 
     417 0.00011002054   -796.72257            0   -796.72257    13790.321 
     418 0.00012172184   -796.72257            0   -796.72257    13790.329 
     419 0.00013394343   -796.72257            0   -796.72257    13790.337 
     420 0.00014667131   -796.72257            0   -796.72257    13790.345 
     421 0.00015989082   -796.72257            0   -796.72257    13790.354 
     422 0.00017358672   -796.72257            0   -796.72257    13790.363 
     423 0.00018774301   -796.72257            0   -796.72257    13790.372 
     424 0.0002023431   -796.72257            0   -796.72257    13790.382 
     425 0.00021736973   -796.72257            0   -796.72257    13790.392 
     426 0.00023280509   -796.72257            0   -796.72257    13790.403 
     427 0.00024863074   -796.72257            0   -796.72257    13790.414 
     428 0.00026482763   -796.72257            0   -796.72257    13790.425 
     429 0.00028137609   -796.72257            0   -796.72257    13790.436 
     430 0.00029825588   -796.72257            0   -796.72257    13790.448 
     431 0.00031544613   -796.72257            0   -796.72257     13790.46 
     432 0.00033292541   -796.72257            0   -796.72257    13790.472 
     433 0.00035067168   -796.72257            0   -796.72257    13790.485 
     434 0.0003686623   -796.72257            0   -796.72257    13790.498 
     435 0.00038687404   -796.72257            0   -796.72257    13790.512 
     436 0.00040528269   -796.72257            0   -796.72257    13790.525 
     437 0.00042386027   -796.72257            0   -796.72257    13790.539 
     438 0.00044254821   -796.72257            0   -796.72257    13790.553 
     439 0.00046096444   -796.72257            0   -796.72257    13790.568 
     440 0.00047498502   -796.72257            0   -796.72256     13790.58 
     441 0.00043753568   -796.72257            0   -796.72257    13790.603 
     442 0.00013691919   -796.72257            0   -796.72257    13790.588 
     443 2.5130517e-06   -796.72257            0   -796.72257     13790.59 
     444 4.4355445e-06   -796.72257            0   -796.72257    13790.594 
     445 7.2565343e-06   -796.72257            0   -796.72257    13790.598 
     446 1.0404427e-05   -796.72257            0   -796.72257    13790.602 
     447  1.34844e-05   -796.72257            0   -796.72257    13790.605 
     448 1.6710801e-05   -796.72257            0   -796.72257    13790.607 
     449 2.0233983e-05   -796.72257            0   -796.72257     13790.61 
     450 2.4079163e-05   -796.72257            0   -796.72257    13790.613 
     451 2.8244125e-05   -796.72257            0   -796.72257    13790.617 
     452 3.2724056e-05   -796.72257            0   -796.72257     13790.62 
     453 3.7513672e-05   -796.72257            0   -796.72257    13790.624 
     454 4.2607283e-05   -796.72257            0   -796.72257    13790.628 
     455 4.7998799e-05   -796.72257            0   -796.72257    13790.633 
     456 5.3681731e-05   -796.72257            0   -796.72257    13790.638 
     457 5.9649195e-05   -796.72257            0   -796.72257    13790.642 
     458 6.5893916e-05   -796.72257            0   -796.72257    13790.648 
     459 7.2408227e-05   -796.72257            0   -796.72257    13790.653 
     460 7.918404e-05   -796.72257            0   -796.72257    13790.659 
     461 8.6212935e-05   -796.72257            0   -796.72257    13790.665 
     462 9.3486146e-05   -796.72257            0   -796.72257    13790.671 
     463 0.00010099446   -796.72257            0   -796.72257    13790.677 
     464 0.00010872835   -796.72257            0   -796.72257    13790.684 
     465 0.00011667788   -796.72257            0   -796.72257    13790.691 
     466 0.00012483279   -796.72257            0   -796.72257    13790.698 
     467 0.0001331824   -796.72257            0   -796.72257    13790.705 
     468 0.00014171575   -796.72257            0   -796.72257    13790.713 
     469 0.00015042141   -796.72257            0   -796.72257    13790.721 
     470 0.00015928779   -796.72257            0   -796.72257    13790.729 
     471 0.00016830257   -796.72257            0   -796.72257    13790.737 
     472 0.0001774538   -796.72257            0   -796.72257    13790.746 
     473 0.0001867277   -796.72258            0   -796.72257    13790.754 
     474 0.00019611326   -796.72258            0   -796.72257    13790.763 
     475 0.00020559214   -796.72258            0   -796.72257    13790.772 
     476 0.00021516283   -796.72258            0   -796.72257    13790.782 
     477 0.00022478444   -796.72258            0   -796.72257    13790.791 
     478 0.00023457112   -796.72258            0   -796.72257    13790.802 
     479 0.00024475922   -796.72258            0   -796.72257    13790.806 
     480 0.00026225702   -796.72258            0   -796.72257    13790.836 
     481  0.000361767   -796.72258            0   -796.72257    13790.774 
     482 0.00088785891   -796.72258            0   -796.72256    13790.981 
     483 6.2346936e-05   -796.72258            0   -796.72257    13790.919 
     484 5.1098499e-05   -796.72258            0   -796.72258    13790.873 
     485 2.3021411e-05   -796.72258            0   -796.72258    13790.847 
     486 1.0362978e-05   -796.72258            0   -796.72258     13790.84 
     487 1.0461321e-05   -796.72258            0   -796.72258    13790.841 
     488 1.2392931e-05   -796.72258            0   -796.72258    13790.843 
     489 1.455815e-05   -796.72258            0   -796.72258    13790.845 
     490 1.6887612e-05   -796.72258            0   -796.72258    13790.847 
     491 1.9378598e-05   -796.72258            0   -796.72258     13790.85 
     492 2.2028026e-05   -796.72258            0   -796.72258    13790.853 
     493 2.4832468e-05   -796.72258            0   -796.72258    13790.856 
     494 2.7788266e-05   -796.72258            0   -796.72258    13790.859 
     495 3.0891535e-05   -796.72258            0   -796.72258    13790.862 
     496 3.4138166e-05   -796.72258            0   -796.72258    13790.866 
     497 3.7523829e-05   -796.72258            0   -796.72258    13790.869 
     498 4.104397e-05   -796.72258            0   -796.72258    13790.873 
     499 4.4693817e-05   -796.72258            0   -796.72258    13790.877 
     500 4.8468381e-05   -796.72258            0   -796.72258    13790.882 
     501 5.2362456e-05   -796.72258            0   -796.72258    13790.886 
     502 5.6370622e-05   -796.72258            0   -796.72258    13790.891 
     503 6.0487246e-05   -796.72258            0   -796.72258    13790.895 
     504 6.4706481e-05   -796.72258            0   -796.72258      13790.9 
     505 6.9022272e-05   -796.72258            0   -796.72258    13790.905 
     506 7.3428352e-05   -796.72258            0   -796.72258     13790.91 
     507 7.7918246e-05   -796.72258            0   -796.72258    13790.916 
     508 8.2485269e-05   -796.72258            0   -796.72258    13790.921 
     509 8.7122526e-05   -796.72258            0   -796.72258    13790.927 
     510 9.1822919e-05   -796.72258            0   -796.72258    13790.933 
     511 9.6579125e-05   -796.72258            0   -796.72258    13790.938 
     512 0.00010138364   -796.72258            0   -796.72258    13790.944 
     513 0.00010622868   -796.72258            0   -796.72258    13790.951 
     514 0.00011110651   -796.72258            0   -796.72258    13790.957 
     515 0.00011600896   -796.72258            0   -796.72258    13790.964 
     516 0.00012093496   -796.72258            0   -796.72258    13790.969 
     517 0.00012593945   -796.72258            0   -796.72258     13790.98 
     518 0.00013194895   -796.72258            0   -796.72258    13790.973 
     519 0.0001518283   -796.72258            0   -796.72258     13791.03 
     520 0.00032631637   -796.72258            0   -796.72257    13790.869 
     521 0.00023108949   -796.72258            0   -796.72257    13791.036 
     522 1.1932039e-05   -796.72258            0   -796.72258    13791.004 
     523 5.6178968e-06   -796.72258            0   -796.72258    13790.999 
     524 6.3964197e-06   -796.72258            0   -796.72258        13791 
     525 7.518692e-06   -796.72258            0   -796.72258    13791.002 
     526 8.7274626e-06   -796.72258            0   -796.72258    13791.004 
     527    1.002e-05   -796.72258            0   -796.72258    13791.005 
     528 1.1394489e-05   -796.72258            0   -796.72258    13791.007 
     529 1.2848981e-05   -796.72258            0   -796.72258    13791.009 
     530 1.4381398e-05   -796.72258            0   -796.72258    13791.012 
     531 1.5989532e-05   -796.72258            0   -796.72258    13791.014 
     532 1.7671048e-05   -796.72258            0   -796.72258    13791.016 
     533 1.9423482e-05   -796.72258            0   -796.72258    13791.019 
     534 2.1244245e-05   -796.72258            0   -796.72258    13791.021 
     535 2.313062e-05   -796.72258            0   -796.72258    13791.024 
     536 2.5079767e-05   -796.72258            0   -796.72258    13791.027 
     537 2.7088723e-05   -796.72258            0   -796.72258     13791.03 
     538 2.9154399e-05   -796.72258            0   -796.72258    13791.033 
     539 3.1273586e-05   -796.72258            0   -796.72258    13791.037 
     540 3.3442954e-05   -796.72258            0   -796.72258     13791.04 
     541 3.5659051e-05   -796.72258            0   -796.72258    13791.043 
     542 3.7918306e-05   -796.72258            0   -796.72258    13791.047 
     543 4.0217026e-05   -796.72258            0   -796.72258    13791.051 
     544 4.2551409e-05   -796.72258            0   -796.72258    13791.054 
     545 4.4917508e-05   -796.72258            0   -796.72258    13791.058 
     546 4.7311319e-05   -796.72258            0   -796.72258    13791.062 
     547 4.972858e-05   -796.72258            0   -796.72258    13791.066 
     548 5.2165376e-05   -796.72258            0   -796.72258     13791.07 
     549 5.4617164e-05   -796.72258            0   -796.72258    13791.075 
     550 5.7088624e-05   -796.72258            0   -796.72258    13791.078 
     551 5.963788e-05   -796.72258            0   -796.72258    13791.086 
     552 6.3104089e-05   -796.72258            0   -796.72258    13791.078 
     553 7.7210052e-05   -796.72258            0   -796.72258    13791.128 
     554 0.00017008105   -796.72258            0   -796.72258    13791.001 
     555 5.2981239e-05   -796.72258            0   -796.72258    13791.081 
     556 6.1579078e-06   -796.72258            0   -796.72258    13791.099 
     557 4.4047427e-06   -796.72258            0   -796.72258    13791.098 
     558 5.0747181e-06   -796.72258            0   -796.72258      13791.1 
     559 5.8134019e-06   -796.72258            0   -796.72258    13791.101 
     560 6.598373e-06   -796.72258            0   -796.72258    13791.102 
     561 7.4279404e-06   -796.72258            0   -796.72258    13791.104 
     562 8.3006537e-06   -796.72258            0   -796.72258    13791.105 
     563 9.2151903e-06   -796.72258            0   -796.72258    13791.107 
     564 1.0170057e-05   -796.72258            0   -796.72258    13791.109 
     565 1.1163758e-05   -796.72258            0   -796.72258    13791.111 
     566 1.2194654e-05   -796.72258            0   -796.72258    13791.113 
     567 1.3261096e-05   -796.72258            0   -796.72258    13791.115 
     568 1.4361284e-05   -796.72258            0   -796.72258    13791.117 
     569 1.5493438e-05   -796.72258            0   -796.72258    13791.119 
     570 1.6655571e-05   -796.72258            0   -796.72258    13791.121 
     571 1.7845828e-05   -796.72258            0   -796.72258    13791.124 
     572 1.9061957e-05   -796.72258            0   -796.72258    13791.126 
     573 2.030229e-05   -796.72258            0   -796.72258    13791.129 
     574 2.1564184e-05   -796.72258            0   -796.72258    13791.132 
     575 2.2848745e-05   -796.72258            0   -796.72258    13791.133 
     576 2.4160067e-05   -796.72258            0   -796.72258    13791.138 
     577 2.5569198e-05   -796.72258            0   -796.72258    13791.136 
     578 2.7500311e-05   -796.72258            0   -796.72258    13791.151 
     579 3.3074653e-05   -796.72258            0   -796.72258    13791.123 
     580 5.0976261e-05   -796.72258            0   -796.72258    13791.193 
     581 2.5785079e-05   -796.72258            0   -796.72258    13791.139 
     582 3.222212e-06   -796.72258            0   -796.72258     13791.15 
     583 2.7854879e-06   -796.72258            0   -796.72258     13791.15 
     584 3.2291616e-06   -796.72258            0   -796.72258    13791.151 
     585 3.7102738e-06   -796.72258            0   -796.72258    13791.152 
     586 4.2218172e-06   -796.72258            0   -796.72258    13791.153 
     587 4.7628664e-06   -796.72258            0   -796.72258    13791.154 
     588 5.3324656e-06   -796.72258            0   -796.72258    13791.156 
     589 5.9296856e-06   -796.72258            0   -796.72258    13791.157 
     590 6.553501e-06   -796.72258            0   -796.72258    13791.158 
     591 7.2028637e-06   -796.72258            0   -796.72258     13791.16 
     592 7.8766437e-06   -796.72258            0   -796.72258    13791.161 
     593 8.5736854e-06   -796.72258            0   -796.72258    13791.163 
     594 9.2927482e-06   -796.72258            0   -796.72258    13791.165 
     595 1.003258e-05   -796.72258            0   -796.72258    13791.166 
     596 1.0791819e-05   -796.72258            0   -796.72258    13791.168 
     597 1.1569141e-05   -796.72258            0   -796.72258     13791.17 
     598 1.2363024e-05   -796.72258            0   -796.72258    13791.172 
     599 1.3172163e-05   -796.72258            0   -796.72258    13791.174 
     600 1.3994687e-05   -796.72258            0   -796.72258    13791.176 
     601 1.4829788e-05   -796.72258            0   -796.72258    13791.178 
     602 1.5674406e-05   -796.72258            0   -796.72258    13791.181 
     603 1.6532619e-05   -796.72258            0   -796.72258    13791.181 
     604 1.7404226e-05   -796.72258            0   -796.72258    13791.189 
     605 1.8326942e-05   -796.72258            0   -796.72258    13791.175 
     606 1.6873445e-05   -796.72258            0   -796.72258    13791.209 
     607 4.089045e-06   -796.72258            0   -796.72258     13791.19 
     608 1.5511979e-06   -796.72258            0   -796.72258     13791.19 
     609 1.8204599e-06   -796.72258            0   -796.72258     13791.19 
     610 2.1181874e-06   -796.72258            0   -796.72258    13791.191 
     611 2.4366058e-06   -796.72258            0   -796.72258    13791.192 
     612 2.7751409e-06   -796.72258            0   -796.72258    13791.193 
     613 3.1331897e-06   -796.72258            0   -796.72258    13791.194 
     614 3.5101255e-06   -796.72258            0   -796.72258    13791.195 
     615 3.9052756e-06   -796.72258            0   -796.72258    13791.196 
     616 4.317933e-06   -796.72258            0   -796.72258    13791.197 
     617 4.747349e-06   -796.72258            0   -796.72258    13791.198 
     618 5.1927399e-06   -796.72258            0   -796.72258    13791.199 
     619 5.6532816e-06   -796.72258            0   -796.72258    13791.201 
     620 6.1281169e-06   -796.72258            0   -796.72258    13791.202 
     621 6.6163473e-06   -796.72258            0   -796.72258    13791.203 
     622 7.1170454e-06   -796.72258            0   -796.72258    13791.205 
     623 7.6292382e-06   -796.72258            0   -796.72258    13791.206 
     624 8.1519359e-06   -796.72258            0   -796.72258    13791.208 
     625 8.6840807e-06   -796.72258            0   -796.72258    13791.209 
     626 9.2246453e-06   -796.72258            0   -796.72258    13791.211 
     627 9.772414e-06   -796.72258            0   -796.72258    13791.213 
     628 1.0326369e-05   -796.72258            0   -796.72258    13791.214 
     629 1.088409e-05   -796.72258            0   -796.72258    13791.217 
     630 1.1440609e-05   -796.72258            0   -796.72258    13791.217 
     631 1.1948913e-05   -796.72258            0   -796.72258    13791.222 
     632 1.2055095e-05   -796.72258            0   -796.72258    13791.216 
     633 9.1010689e-06   -796.72258            0   -796.72258    13791.235 
     634 1.4354412e-06   -796.72258            0   -796.72258    13791.225 
     635 9.5015224e-07   -796.72258            0   -796.72258    13791.224 
     636 1.1049485e-06   -796.72258            0   -796.72258    13791.225 
     637 1.2916087e-06   -796.72258            0   -796.72258    13791.225 
     638 1.4917045e-06   -796.72258            0   -796.72258    13791.226 
     639 1.7047919e-06   -796.72258            0   -796.72258    13791.227 
     640 1.9304621e-06   -796.72258            0   -796.72258    13791.227 
     641 2.1682951e-06   -796.72258            0   -796.72258    13791.228 
     642 2.4178388e-06   -796.72258            0   -796.72258    13791.229 
     643 2.6786185e-06   -796.72258            0   -796.72258     13791.23 
     644 2.9501304e-06   -796.72258            0   -796.72258    13791.231 
     645 3.2318477e-06   -796.72258            0   -796.72258    13791.232 
     646 3.5232161e-06   -796.72258            0   -796.72258    13791.233 
     647 3.823659e-06   -796.72258            0   -796.72258    13791.234 
     648 4.132572e-06   -796.72258            0   -796.72258    13791.235 
     649 4.4493323e-06   -796.72258            0   -796.72258    13791.236 
     650 4.7732846e-06   -796.72258            0   -796.72258    13791.237 
     651 5.1037654e-06   -796.72258            0   -796.72258    13791.238 
     652 5.4400561e-06   -796.72258            0   -796.72258    13791.239 
     653 5.7814521e-06   -796.72258            0   -796.72258    13791.241 
     654 6.1269912e-06   -796.72258            0   -796.72258    13791.242 
     655 6.4752485e-06   -796.72258            0   -796.72258    13791.243 
     656 6.8192423e-06   -796.72258            0   -796.72258    13791.245 
     657 7.1172392e-06   -796.72258            0   -796.72258    13791.245 
     658 7.0411411e-06   -796.72258            0   -796.72258     13791.25 
     659 4.7987654e-06   -796.72258            0   -796.72258    13791.245 
     660 7.3529907e-07   -796.72258            0   -796.72258    13791.249 
     661 6.2878421e-07   -796.72258            0   -796.72258    13791.249 
     662 7.4301885e-07   -796.72258            0   -796.72258     13791.25 
     663 8.6749964e-07   -796.72258            0   -796.72258     13791.25 
     664 1.0007634e-06   -796.72258            0   -796.72258    13791.251 
     665 1.1425345e-06   -796.72258            0   -796.72258    13791.251 
     666 1.2925291e-06   -796.72258            0   -796.72258    13791.252 
     667 1.4504499e-06   -796.72258            0   -796.72258    13791.253 
     668 1.6159792e-06   -796.72258            0   -796.72258    13791.253 
     669 1.7887823e-06   -796.72258            0   -796.72258    13791.254 
     670 1.9685059e-06   -796.72258            0   -796.72258    13791.255 
     671 2.1547799e-06   -796.72258            0   -796.72258    13791.256 
     672 2.3472161e-06   -796.72258            0   -796.72258    13791.256 
     673 2.5454107e-06   -796.72258            0   -796.72258    13791.257 
     674 2.7489417e-06   -796.72258            0   -796.72258    13791.258 
     675 2.9573735e-06   -796.72258            0   -796.72258    13791.259 
     676 3.1702498e-06   -796.72258            0   -796.72258     13791.26 
     677 3.3871039e-06   -796.72258            0   -796.72258    13791.261 
     678 3.6074219e-06   -796.72258            0   -796.72258    13791.262 
     679 3.8306216e-06   -796.72258            0   -796.72258    13791.263 
     680 4.0555263e-06   -796.72258            0   -796.72258    13791.264 
     681 4.2778164e-06   -796.72258            0   -796.72258    13791.265 
     682 4.4692666e-06   -796.72258            0   -796.72258    13791.266 
     683 4.4294515e-06   -796.72258            0   -796.72258    13791.267 
     684 3.0689594e-06   -796.72258            0   -796.72258    13791.269 
     685 5.0966507e-07   -796.72258            0   -796.72258    13791.268 
     686 3.9284503e-07   -796.72258            0   -796.72258    13791.269 
     687 4.6459663e-07   -796.72258            0   -796.72258    13791.269 
     688 5.4542399e-07   -796.72258            0   -796.72258     13791.27 
     689 6.3221871e-07   -796.72258            0   -796.72258     13791.27 
     690 7.2474708e-07   -796.72258            0   -796.72258     13791.27 
     691 8.2281546e-07   -796.72258            0   -796.72258    13791.271 
     692 9.2621797e-07   -796.72258            0   -796.72258    13791.271 
     693 1.034737e-06   -796.72258            0   -796.72258    13791.272 
     694 1.1481416e-06   -796.72258            0   -796.72258    13791.272 
     695 1.266189e-06   -796.72258            0   -796.72258    13791.273 
     696 1.3886237e-06   -796.72258            0   -796.72258    13791.274 
     697 1.5151788e-06   -796.72258            0   -796.72258    13791.274 
     698 1.6455752e-06   -796.72258            0   -796.72258    13791.275 
     699 1.7795232e-06   -796.72258            0   -796.72258    13791.276 
     700 1.9167209e-06   -796.72258            0   -796.72258    13791.276 
     701 2.0568564e-06   -796.72258            0   -796.72258    13791.277 
     702 2.1996006e-06   -796.72258            0   -796.72258    13791.278 
     703 2.3445992e-06   -796.72258            0   -796.72258    13791.279 
     704 2.4913697e-06   -796.72258            0   -796.72258    13791.279 
     705 2.6388206e-06   -796.72258            0   -796.72258     13791.28 
     706 2.7817582e-06   -796.72258            0   -796.72258    13791.281 
     707 2.886808e-06   -796.72258            0   -796.72258    13791.282 
     708 2.7247493e-06   -796.72258            0   -796.72258    13791.283 
     709 1.4333678e-06   -796.72258            0   -796.72258    13791.283 
     710 1.7948133e-07   -796.72258            0   -796.72258    13791.284 
     711 2.4920671e-07   -796.72258            0   -796.72258    13791.284 
     712 2.9816187e-07   -796.72258            0   -796.72258    13791.284 
     713 3.5155204e-07   -796.72258            0   -796.72258    13791.285 
     714 4.089508e-07   -796.72258            0   -796.72258    13791.285 
     715 4.7023004e-07   -796.72258            0   -796.72258    13791.285 
     716 5.3525677e-07   -796.72258            0   -796.72258    13791.286 
     717 6.0388877e-07   -796.72258            0   -796.72258    13791.286 
     718 6.7597485e-07   -796.72258            0   -796.72258    13791.286 
     719 7.5135485e-07   -796.72258            0   -796.72258    13791.287 
     720 8.2985998e-07   -796.72258            0   -796.72258    13791.287 
     721 9.1131294e-07   -796.72258            0   -796.72258    13791.288 
     722 9.9552821e-07   -796.72258            0   -796.72258    13791.288 
     723 1.0823123e-06   -796.72258            0   -796.72258    13791.289 
     724 1.1714638e-06   -796.72258            0   -796.72258    13791.289 
     725 1.2627742e-06   -796.72258            0   -796.72258     13791.29 
     726 1.3560275e-06   -796.72258            0   -796.72258    13791.291 
     727 1.4510004e-06   -796.72258            0   -796.72258    13791.291 
     728 1.5474624e-06   -796.72258            0   -796.72258    13791.292 
     729 1.645169e-06   -796.72258            0   -796.72258    13791.293 
     730 1.7438331e-06   -796.72258            0   -796.72258    13791.293 
     731 1.8429046e-06   -796.72258            0   -796.72258    13791.294 
     732 1.9400199e-06   -796.72258            0   -796.72258    13791.295 
     733 2.0184575e-06   -796.72258            0   -796.72258    13791.295 
     734 1.9473832e-06   -796.72258            0   -796.72258    13791.296 
     735 1.0927837e-06   -796.72258            0   -796.72258    13791.297 
     736 1.0394457e-07   -796.72258            0   -796.72258    13791.297 
     737 1.5676868e-07   -796.72258            0   -796.72258    13791.297 
     738 1.8805013e-07   -796.72258            0   -796.72258    13791.297 
     739 2.2243801e-07   -796.72258            0   -796.72258    13791.297 
     740 2.594577e-07   -796.72258            0   -796.72258    13791.298 
     741 2.9902134e-07   -796.72258            0   -796.72258    13791.298 
     742 3.4103898e-07   -796.72258            0   -796.72258    13791.298 
     743 3.854146e-07   -796.72258            0   -796.72258    13791.299 
     744 4.3204604e-07   -796.72258            0   -796.72258    13791.299 
     745 4.8082511e-07   -796.72258            0   -796.72258    13791.299 
     746 5.3163778e-07   -796.72258            0   -796.72258      13791.3 
     747 5.8436432e-07   -796.72258            0   -796.72258      13791.3 
     748 6.3887947e-07   -796.72258            0   -796.72258      13791.3 
     749 6.9505267e-07   -796.72258            0   -796.72258    13791.301 
     750 7.5274822e-07   -796.72258            0   -796.72258    13791.301 
     751 8.118255e-07   -796.72258            0   -796.72258    13791.302 
     752 8.7213909e-07   -796.72258            0   -796.72258    13791.302 
     753 9.3353888e-07   -796.72258            0   -796.72258    13791.303 
     754 9.9586902e-07   -796.72258            0   -796.72258    13791.303 
     755 1.0589623e-06   -796.72258            0   -796.72258    13791.304 
     756 1.1226025e-06   -796.72258            0   -796.72258    13791.304 
     757 1.1862746e-06   -796.72258            0   -796.72258    13791.305 
     758 1.2473073e-06   -796.72258            0   -796.72258    13791.305 
     759 1.2860427e-06   -796.72258            0   -796.72258    13791.306 
     760 1.156785e-06   -796.72258            0   -796.72258    13791.307 
     761 4.3611596e-07   -796.72258            0   -796.72258    13791.307 
     762 4.4799194e-08   -796.72258            0   -796.72258    13791.307 
     763 7.2696545e-08   -796.72258            0   -796.72258    13791.307 
     764 9.1491815e-08   -796.72258            0   -796.72258    13791.307 
     765 1.1117291e-07   -796.72258            0   -796.72258    13791.307 
     766 1.3263718e-07   -796.72258            0   -796.72258    13791.308 
     767 1.5583343e-07   -796.72258            0   -796.72258    13791.308 
     768 1.8070752e-07   -796.72258            0   -796.72258    13791.308 
     769 2.0720092e-07   -796.72258            0   -796.72258    13791.308 
     770 2.3525083e-07   -796.72258            0   -796.72258    13791.308 
     771 2.6479026e-07   -796.72258            0   -796.72258    13791.309 
     772 2.9574816e-07   -796.72258            0   -796.72258    13791.309 
     773 3.2804952e-07   -796.72258            0   -796.72258    13791.309 
     774 3.6161549e-07   -796.72258            0   -796.72258     13791.31 
     775 3.9636353e-07   -796.72258            0   -796.72258     13791.31 
     776 4.3220753e-07   -796.72258            0   -796.72258     13791.31 
     777 4.6905798e-07   -796.72258            0   -796.72258    13791.311 
     778 5.0682208e-07   -796.72258            0   -796.72258    13791.311 
     779 5.4540397e-07   -796.72258            0   -796.72258    13791.311 
     780 5.847048e-07   -796.72258            0   -796.72258    13791.312 
     781 6.2462304e-07   -796.72258            0   -796.72258    13791.312 
     782 6.6505452e-07   -796.72258            0   -796.72258    13791.313 
     783 7.0589276e-07   -796.72258            0   -796.72258    13791.313 
     784 7.4702896e-07   -796.72258            0   -796.72258    13791.313 
     785 7.8835244e-07   -796.72258            0   -796.72258    13791.314 
     786 8.297492e-07   -796.72258            0   -796.72258    13791.314 
     787 8.7109494e-07   -796.72258            0   -796.72258    13791.315 
     788 9.1217004e-07   -796.72258            0   -796.72258    13791.315 
     789 9.5177676e-07   -796.72258            0   -796.72258    13791.316 
     790 9.7750826e-07   -796.72258            0   -796.72258    13791.316 
     791 8.5656333e-07   -796.72258            0   -796.72258    13791.317 
     792 1.9115162e-07   -796.72258            0   -796.72258    13791.317 
     793 9.9546076e-09   -796.72258            0   -796.72258    13791.317 
     794 1.7756506e-08   -796.72258            0   -796.72258    13791.317 
     795 2.6847086e-08   -796.72258            0   -796.72258    13791.317 
     796 3.5785208e-08   -796.72258            0   -796.72258    13791.317 
     797 4.5369161e-08   -796.72258            0   -796.72258    13791.317 
     798 5.5982673e-08   -796.72258            0   -796.72258    13791.317 
     799 6.763931e-08   -796.72258            0   -796.72258    13791.318 
     800 8.0311601e-08   -796.72258            0   -796.72258    13791.318 
     801 9.3968744e-08   -796.72258            0   -796.72258    13791.318 
     802 1.0857729e-07   -796.72258            0   -796.72258    13791.318 
     803 1.241012e-07   -796.72258            0   -796.72258    13791.318 
     804 1.4050191e-07   -796.72258            0   -796.72258    13791.318 
     805 1.5773839e-07   -796.72258            0   -796.72258    13791.319 
     806 1.7576723e-07   -796.72258            0   -796.72258    13791.319 
     807 1.9454272e-07   -796.72258            0   -796.72258    13791.319 
     808 2.1401693e-07   -796.72258            0   -796.72258    13791.319 
     809 2.341398e-07   -796.72258            0   -796.72258     13791.32 
     810 2.5485924e-07   -796.72258            0   -796.72258     13791.32 
     811 2.7612121e-07   -796.72258            0   -796.72258     13791.32 
     812 2.9786987e-07   -796.72258            0   -796.72258     13791.32 
     813 3.2004764e-07   -796.72258            0   -796.72258    13791.321 
     814 3.4259532e-07   -796.72258            0   -796.72258    13791.321 
     815 3.6545226e-07   -796.72258            0   -796.72258    13791.321 
     816 3.8855641e-07   -796.72258            0   -796.72258    13791.322 
     817 4.118445e-07   -796.72258            0   -796.72258    13791.322 
     818 4.3525212e-07   -796.72258            0   -796.72258    13791.322 
     819 4.5871393e-07   -796.72258            0   -796.72258    13791.323 
     820 4.8216318e-07   -796.72258            0   -796.72258    13791.323 
     821 5.0552948e-07   -796.72258            0   -796.72258    13791.323 
     822 5.2870535e-07   -796.72258            0   -796.72258    13791.324 
     823 5.5118985e-07   -796.72258            0   -796.72258    13791.324 
     824 5.676181e-07   -796.72258            0   -796.72258    13791.324 
     825 5.1510949e-07   -796.72258            0   -796.72258    13791.325 
     826 1.3688214e-07   -796.72258            0   -796.72258    13791.325 
     827 2.5971832e-09   -796.72258            0   -796.72258    13791.325 
     828 4.9911757e-09   -796.72258            0   -796.72258    13791.325 
     829 8.817974e-09   -796.72258            0   -796.72258    13791.325 
     830 1.3442638e-08   -796.72258            0   -796.72258    13791.325 
     831 1.8207755e-08   -796.72258            0   -796.72258    13791.325 
     832 2.3363442e-08   -796.72258            0   -796.72258    13791.325 
     833 2.9095285e-08   -796.72258            0   -796.72258    13791.325 
     834 3.5416228e-08   -796.72258            0   -796.72258    13791.325 
     835 4.2311228e-08   -796.72258            0   -796.72258    13791.325 
     836 4.9762898e-08   -796.72258            0   -796.72258    13791.326 
     837 5.7752314e-08   -796.72258            0   -796.72258    13791.326 
     838 6.6259041e-08   -796.72258            0   -796.72258    13791.326 
     839 7.5261176e-08   -796.72258            0   -796.72258    13791.326 
     840 8.4735391e-08   -796.72258            0   -796.72258    13791.326 
     841 9.4656975e-08   -796.72258            0   -796.72258    13791.326 
     842 1.0499989e-07   -796.72258            0   -796.72258    13791.326 
     843 1.1573683e-07   -796.72258            0   -796.72258    13791.327 
     844 1.2683925e-07   -796.72258            0   -796.72258    13791.327 
     845 1.3827746e-07   -796.72258            0   -796.72258    13791.327 
     846 1.5002067e-07   -796.72258            0   -796.72258    13791.327 
     847 1.6203704e-07   -796.72258            0   -796.72258    13791.327 
     848 1.7429381e-07   -796.72258            0   -796.72258    13791.328 
     849 1.8675725e-07   -796.72258            0   -796.72258    13791.328 
     850 1.993929e-07   -796.72258            0   -796.72258    13791.328 
     851 2.1216544e-07   -796.72258            0   -796.72258    13791.328 
     852 2.2503905e-07   -796.72258            0   -796.72258    13791.328 
     853 2.3797701e-07   -796.72258            0   -796.72258    13791.329 
     854 2.5094274e-07   -796.72258            0   -796.72258    13791.329 
     855 2.6389771e-07   -796.72258            0   -796.72258    13791.329 
     856 2.7680596e-07   -796.72258            0   -796.72258     13791.33 
     857 2.8961634e-07   -796.72258            0   -796.72258     13791.33 
     858 3.0223272e-07   -796.72258            0   -796.72258     13791.33 
     859 3.1365342e-07   -796.72258            0   -796.72258     13791.33 
     860 3.1223992e-07   -796.72258            0   -796.72258    13791.331 
     861 1.904733e-07   -796.72258            0   -796.72258    13791.331 
     862 5.7540285e-09   -796.72258            0   -796.72258    13791.331 
     863 1.1994075e-08   -796.72258            0   -796.72258    13791.331 
     864 1.5856261e-08   -796.72258            0   -796.72258    13791.331 
     865 1.9357478e-08   -796.72258            0   -796.72258    13791.331 
     866 2.3187391e-08   -796.72258            0   -796.72258    13791.331 
     867 2.7331326e-08   -796.72258            0   -796.72258    13791.331 
     868 3.1778172e-08   -796.72258            0   -796.72258    13791.331 
     869 3.6516205e-08   -796.72258            0   -796.72258    13791.331 
     870 4.153286e-08   -796.72258            0   -796.72258    13791.331 
     871 4.6814752e-08   -796.72258            0   -796.72258    13791.332 
     872 5.2347704e-08   -796.72258            0   -796.72258    13791.332 
     873 5.8116779e-08   -796.72258            0   -796.72258    13791.332 
     874 6.4106311e-08   -796.72258            0   -796.72258    13791.332 
     875 7.0299942e-08   -796.72258            0   -796.72258    13791.332 
     876 7.6680656e-08   -796.72258            0   -796.72258    13791.332 
     877 8.3230818e-08   -796.72258            0   -796.72258    13791.332 
     878 8.9932214e-08   -796.72258            0   -796.72258    13791.333 
     879 9.6766094e-08   -796.72258            0   -796.72258    13791.333 
     880 1.0371321e-07   -796.72258            0   -796.72258    13791.333 
     881 1.1075387e-07   -796.72258            0   -796.72258    13791.333 
     882 1.1786793e-07   -796.72258            0   -796.72258    13791.333 
     883 1.2503483e-07   -796.72258            0   -796.72258    13791.333 
     884 1.3223278e-07   -796.72258            0   -796.72258    13791.334 
     885 1.3943394e-07   -796.72258            0   -796.72258    13791.334 
     886 1.4655731e-07   -796.72258            0   -796.72258    13791.334 
     887 1.5304135e-07   -796.72258            0   -796.72258    13791.334 
     888 1.5355593e-07   -796.72258            0   -796.72258    13791.334 
     889 1.0775533e-07   -796.72258            0   -796.72258    13791.334 
     890 1.0660067e-08   -796.72258            0   -796.72258    13791.335 
     891 1.1155819e-08   -796.72258            0   -796.72258    13791.335 
     892 1.3444621e-08   -796.72258            0   -796.72258    13791.335 
     893 1.5943809e-08   -796.72258            0   -796.72258    13791.335 
     894 1.8633957e-08   -796.72258            0   -796.72258    13791.335 
     895 2.1507541e-08   -796.72258            0   -796.72258    13791.335 
     896 2.4556768e-08   -796.72258            0   -796.72258    13791.335 
     897 2.7773357e-08   -796.72258            0   -796.72258    13791.335 
     898 3.1148518e-08   -796.72258            0   -796.72258    13791.335 
     899 3.4672985e-08   -796.72258            0   -796.72258    13791.335 
     900 3.833702e-08   -796.72258            0   -796.72258    13791.335 
     901 4.2130453e-08   -796.72258            0   -796.72258    13791.335 
     902 4.6042685e-08   -796.72258            0   -796.72258    13791.335 
     903 5.0062737e-08   -796.72258            0   -796.72258    13791.336 
     904 5.4179234e-08   -796.72258            0   -796.72258    13791.336 
     905 5.8380468e-08   -796.72258            0   -796.72258    13791.336 
     906 6.2654226e-08   -796.72258            0   -796.72258    13791.336 
     907 6.6987507e-08   -796.72258            0   -796.72258    13791.336 
     908 7.1363426e-08   -796.72258            0   -796.72258    13791.336 
     909 7.5744982e-08   -796.72258            0   -796.72258    13791.336 
     910 7.995675e-08   -796.72258            0   -796.72258    13791.336 
     911 8.2827975e-08   -796.72258            0   -796.72258    13791.337 
     912 7.6201548e-08   -796.72258            0   -796.72258    13791.337 
     913 3.3966596e-08   -796.72258            0   -796.72258    13791.337 
     914 3.8963289e-09   -796.72258            0   -796.72258    13791.337 
     915 6.0666394e-09   -796.72258            0   -796.72258    13791.337 
     916 7.4744119e-09   -796.72258            0   -796.72258    13791.337 
     917 9.0138058e-09   -796.72258            0   -796.72258    13791.337 
     918 1.0684442e-08   -796.72258            0   -796.72258    13791.337 
     919 1.2481802e-08   -796.72258            0   -796.72258    13791.337 
     920 1.4400991e-08   -796.72258            0   -796.72258    13791.337 
     921 1.6436752e-08   -796.72258            0   -796.72258    13791.337 
     922 1.8583476e-08   -796.72258            0   -796.72258    13791.337 
     923 2.0835219e-08   -796.72258            0   -796.72258    13791.337 
     924 2.3185707e-08   -796.72258            0   -796.72258    13791.337 
     925 2.562836e-08   -796.72258            0   -796.72258    13791.338 
     926 2.8156304e-08   -796.72258            0   -796.72258    13791.338 
     927 3.0762387e-08   -796.72258            0   -796.72258    13791.338 
     928 3.3439197e-08   -796.72258            0   -796.72258    13791.338 
     929 3.6179081e-08   -796.72258            0   -796.72258    13791.338 
     930 3.8974161e-08   -796.72258            0   -796.72258    13791.338 
     931 4.1816355e-08   -796.72258            0   -796.72258    13791.338 
     932 4.4697402e-08   -796.72258            0   -796.72258    13791.338 
     933 4.760886e-08   -796.72258            0   -796.72258    13791.338 
     934 5.0542161e-08   -796.72258            0   -796.72258    13791.338 
     935 5.3488461e-08   -796.72258            0   -796.72258    13791.339 
     936 5.6438151e-08   -796.72258            0   -796.72258    13791.339 
     937 5.9374948e-08   -796.72258            0   -796.72258    13791.339 
     938 6.2223225e-08   -796.72258            0   -796.72258    13791.339 
     939 6.430413e-08   -796.72258            0   -796.72258    13791.339 
     940 5.9008494e-08   -796.72258            0   -796.72258    13791.339 
     941 2.0139315e-08   -796.72258            0   -796.72258    13791.339 
     942 7.8506604e-10   -796.72258            0   -796.72258    13791.339 
     943 1.4772892e-09   -796.72258            0   -796.72258    13791.339 
     944 2.2702928e-09   -796.72258            0   -796.72258    13791.339 
     945 2.9948987e-09   -796.72258            0   -796.72258    13791.339 
     946 3.7681245e-09   -796.72258            0   -796.72258    13791.339 
     947 4.622879e-09   -796.72258            0   -796.72258    13791.339 
     948 5.5582937e-09   -796.72258            0   -796.72258    13791.339 
     949 6.5718119e-09   -796.72258            0   -796.72258    13791.339 
     950 7.6606469e-09   -796.72258            0   -796.72258    13791.339 
     951 8.8217864e-09   -796.72258            0   -796.72258     13791.34 
     952   1.0052e-08   -796.72258            0   -796.72258     13791.34 
     953 1.1347844e-08   -796.72258            0   -796.72258     13791.34 
     954 1.2705676e-08   -796.72258            0   -796.72258     13791.34 
     955 1.4121654e-08   -796.72258            0   -796.72258     13791.34 
     956 1.5591758e-08   -796.72258            0   -796.72258     13791.34 
     957 1.7111787e-08   -796.72258            0   -796.72258     13791.34 
     958 1.8677382e-08   -796.72258            0   -796.72258     13791.34 
     959 2.0284027e-08   -796.72258            0   -796.72258     13791.34 
     960 2.1927065e-08   -796.72258            0   -796.72258     13791.34 
     961 2.3601709e-08   -796.72258            0   -796.72258     13791.34 
     962 2.5303054e-08   -796.72258            0   -796.72258     13791.34 
     963 2.7026088e-08   -796.72258            0   -796.72258     13791.34 
     964 2.8765711e-08   -796.72258            0   -796.72258     13791.34 
     965 3.0516737e-08   -796.72258            0   -796.72258     13791.34 
     966 3.2273924e-08   -796.72258            0   -796.72258    13791.341 
     967 3.4031936e-08   -796.72258            0   -796.72258    13791.341 
     968 3.5785439e-08   -796.72258            0   -796.72258    13791.341 
     969 3.7528117e-08   -796.72258            0   -796.72258    13791.341 
     970 3.9247978e-08   -796.72258            0   -796.72258    13791.341 
     971 4.085235e-08   -796.72258            0   -796.72258    13791.341 
     972 4.1304432e-08   -796.72258            0   -796.72258    13791.341 
     973 3.0117794e-08   -796.72258            0   -796.72258    13791.341 
     974 2.1765211e-09   -796.72258            0   -796.72258    13791.341 
     975 2.5450749e-09   -796.72258            0   -796.72258    13791.341 
     976 3.0733866e-09   -796.72258            0   -796.72258    13791.341 
     977 3.647363e-09   -796.72258            0   -796.72258    13791.341 
     978 4.2650982e-09   -796.72258            0   -796.72258    13791.341 
     979 4.9248715e-09   -796.72258            0   -796.72258    13791.341 
     980 5.6248202e-09   -796.72258            0   -796.72258    13791.341 
     981 6.3629664e-09   -796.72258            0   -796.72258    13791.341 
     982 7.1372092e-09   -796.72258            0   -796.72258    13791.342 
     983 7.9453375e-09   -796.72258            0   -796.72258    13791.342 
     984 8.785029e-09   -796.72258            0   -796.72258    13791.342 
     985 9.6538628e-09   -796.72258            0   -796.72258    13791.342 
     986 1.0549319e-08   -796.72258            0   -796.72258    13791.342 
     987 1.146879e-08   -796.72258            0   -796.72258    13791.342 
     988 1.2409583e-08   -796.72258            0   -796.72258    13791.342 
     989 1.3368934e-08   -796.72258            0   -796.72258    13791.342 
     990 1.4343988e-08   -796.72258            0   -796.72258    13791.342 
     991 1.5331827e-08   -796.72258            0   -796.72258    13791.342 
     992 1.6329213e-08   -796.72258            0   -796.72258    13791.342 
     993 1.7331803e-08   -796.72258            0   -796.72258    13791.342 
     994 1.8326301e-08   -796.72258            0   -796.72258    13791.342 
     995 1.9235064e-08   -796.72258            0   -796.72258    13791.342 
     996 1.9443793e-08   -796.72258            0   -796.72258    13791.342 
     997 1.4881366e-08   -796.72258            0   -796.72258    13791.342 
     998 2.7374811e-09   -796.72258            0   -796.72258    13791.342 
     999 1.2193711e-09   -796.72258            0   -796.72258    13791.342 
    1000 1.5389389e-09   -796.72258            0   -796.72258    13791.342 
    1001 1.8716548e-09   -796.72258            0   -796.72258    13791.342 
    1002 2.2342915e-09   -796.72258            0   -796.72258    13791.342 
    1003 2.6257199e-09   -796.72258            0   -796.72258    13791.343 
    1004 3.0448383e-09   -796.72258            0   -796.72258    13791.343 
    1005 3.4904599e-09   -796.72258            0   -796.72258    13791.343 
    1006 3.9613166e-09   -796.72258            0   -796.72258    13791.343 
    1007 4.4560614e-09   -796.72258            0   -796.72258    13791.343 
    1008 4.9732723e-09   -796.72258            0   -796.72258    13791.343 
    1009 5.5114557e-09   -796.72258            0   -796.72258    13791.343 
    1010  6.06905e-09   -796.72258            0   -796.72258    13791.343 
    1011 6.6444301e-09   -796.72258            0   -796.72258    13791.343 
    1012 7.2359118e-09   -796.72258            0   -796.72258    13791.343 
    1013 7.8417547e-09   -796.72258            0   -796.72258    13791.343 
    1014 8.4601692e-09   -796.72258            0   -796.72258    13791.343 
    1015 9.0893178e-09   -796.72258            0   -796.72258    13791.343 
    1016 9.727323e-09   -796.72258            0   -796.72258    13791.343 
    1017 1.0372255e-08   -796.72258            0   -796.72258    13791.343 
[...]
    2065 8.3446555e-17   -796.72258            0   -796.72258    13791.347 
    2066 8.9704872e-17   -796.72258            0   -796.72258    13791.347 
    2067 9.5768177e-17   -796.72258            0   -796.72258    13791.347 
    2068 1.0318304e-16   -796.72258            0   -796.72258    13791.347 
    2069 1.1174372e-16   -796.72258            0   -796.72258    13791.347 
    2070 1.4602637e-16   -796.72258            0   -796.72258    13791.347 
    2071 3.6581366e-16   -796.72258            0   -796.72258    13791.347 
    2072 2.5723009e-15   -796.72258            0   -796.72258    13791.347 
    2073 2.6720537e-14   -796.72258            0   -796.72258    13791.347 
    2074 3.0565725e-13   -796.72258            0   -796.72258    13791.347 
    2075 1.805452e-12   -796.72258            0   -796.72258    13791.347 
    2076 1.2545996e-13   -796.72258            0   -796.72258    13791.347 
    2077 1.0876681e-13   -796.72258            0   -796.72258    13791.347 
    2078 4.2981457e-14   -796.72258            0   -796.72258    13791.347 
    2079 4.8741322e-15   -796.72258            0   -796.72258    13791.347 
    2080 1.5177169e-16   -796.72258            0   -796.72258    13791.347 
    2081 8.7290063e-18   -796.72258            0   -796.72258    13791.347 
    2082 9.7803907e-18   -796.72258            0   -796.72258    13791.347 
    2083 1.1579572e-17   -796.72258            0   -796.72258    13791.347 
    2084 1.3542971e-17   -796.72258            0   -796.72258    13791.347 
    2085 1.564556e-17   -796.72258            0   -796.72258    13791.347 
    2086 1.7891685e-17   -796.72258            0   -796.72258    13791.347 
    2087 2.0275239e-17   -796.72258            0   -796.72258    13791.347 
    2088 2.2793056e-17   -796.72258            0   -796.72258    13791.347 
    2089 2.5442449e-17   -796.72258            0   -796.72258    13791.347 
    2090 2.822273e-17   -796.72258            0   -796.72258    13791.347 
    2091 3.1119996e-17   -796.72258            0   -796.72258    13791.347 
    2092 3.4154758e-17   -796.72258            0   -796.72258    13791.347 
    2093 3.7282437e-17   -796.72258            0   -796.72258    13791.347 
    2094 4.0555089e-17   -796.72258            0   -796.72258    13791.347 
    2095 4.3885641e-17   -796.72258            0   -796.72258    13791.347 
    2096 4.741347e-17   -796.72258            0   -796.72258    13791.347 
    2097 5.0890934e-17   -796.72258            0   -796.72258    13791.347 
    2098 5.4825103e-17   -796.72258            0   -796.72258    13791.347 
    2099 5.8532016e-17   -796.72258            0   -796.72258    13791.347 
    2100 6.5613809e-17   -796.72258            0   -796.72258    13791.347 
    2101 8.3441099e-17   -796.72258            0   -796.72258    13791.347 
    2102 2.2307787e-16   -796.72258            0   -796.72258    13791.347 
    2103 1.3867785e-15   -796.72258            0   -796.72258    13791.347 
    2104 1.3432673e-14   -796.72258            0   -796.72258    13791.347 
    2105 1.4992997e-13   -796.72258            0   -796.72258    13791.347 
    2106 1.7865448e-12   -796.72258            0   -796.72258    13791.347 
    2107 1.1325486e-11   -796.72258            0   -796.72258    13791.347 
    2108 5.4148948e-13   -796.72258            0   -796.72258    13791.347 
    2109 5.7901081e-13   -796.72258            0   -796.72258    13791.347 
    2110 3.6605883e-13   -796.72258            0   -796.72258    13791.347 
    2111 8.7234378e-14   -796.72258            0   -796.72258    13791.347 
    2112 6.9506299e-15   -796.72258            0   -796.72258    13791.347 
    2113 1.5570823e-16   -796.72258            0   -796.72258    13791.347 
    2114 5.3129322e-18   -796.72258            0   -796.72258    13791.347 
    2115 5.9007105e-18   -796.72258            0   -796.72258    13791.347 
    2116 6.9581599e-18   -796.72258            0   -796.72258    13791.347 
    2117 8.1020757e-18   -796.72258            0   -796.72258    13791.347 
    2118 9.3288046e-18   -796.72258            0   -796.72258    13791.347 
    2119 1.0635206e-17   -796.72258            0   -796.72258    13791.347 
    2120 1.2022722e-17   -796.72258            0   -796.72258    13791.347 
    2121 1.3484108e-17   -796.72258            0   -796.72258    13791.347 
    2122 1.5023182e-17   -796.72258            0   -796.72258    13791.347 
    2123 1.6634629e-17   -796.72258            0   -796.72258    13791.347 
    2124 1.8318206e-17   -796.72258            0   -796.72258    13791.347 
    2125 2.006849e-17   -796.72258            0   -796.72258    13791.347 
    2126 2.1894275e-17   -796.72258            0   -796.72258    13791.347 
    2127 2.3782658e-17   -796.72258            0   -796.72258    13791.347 
    2128 2.573348e-17   -796.72258            0   -796.72258    13791.347 
    2129 2.7760105e-17   -796.72258            0   -796.72258    13791.347 
    2130 2.9842788e-17   -796.72258            0   -796.72258    13791.347 
    2131 3.2223965e-17   -796.72258            0   -796.72258    13791.347 
    2132 3.5437176e-17   -796.72258            0   -796.72258    13791.347 
    2133 4.6298379e-17   -796.72258            0   -796.72258    13791.347 
    2134 1.126705e-16   -796.72258            0   -796.72258    13791.347 
    2135 7.0392154e-16   -796.72258            0   -796.72258    13791.347 
    2136 6.6056857e-15   -796.72258            0   -796.72258    13791.347 
    2137 7.3448609e-14   -796.72258            0   -796.72258    13791.347 
    2138 8.7775069e-13   -796.72258            0   -796.72258    13791.347 
    2139 6.5147085e-12   -796.72258            0   -796.72258    13791.347 
    2140 8.0520421e-13   -796.72258            0   -796.72258    13791.347 
    2141 5.1164475e-13   -796.72258            0   -796.72258    13791.347 
    2142 7.1749939e-14   -796.72258            0   -796.72258    13791.347 
    2143 1.3447317e-15   -796.72258            0   -796.72258    13791.347 
    2144 3.7023759e-18   -796.72258            0   -796.72258    13791.347 
    2145 3.4031056e-18   -796.72258            0   -796.72258    13791.347 
    2146 4.0143014e-18   -796.72258            0   -796.72258    13791.347 
    2147 4.6773889e-18   -796.72258            0   -796.72258    13791.347 
    2148 5.3890115e-18   -796.72258            0   -796.72258    13791.347 
    2149 6.1475163e-18   -796.72258            0   -796.72258    13791.347 
    2150 6.9520515e-18   -796.72258            0   -796.72258    13791.347 
    2151 7.8012967e-18   -796.72258            0   -796.72258    13791.347 
    2152 8.695768e-18   -796.72258            0   -796.72258    13791.347 
    2153 9.6356985e-18   -796.72258            0   -796.72258    13791.347 
    2154 1.061434e-17   -796.72258            0   -796.72258    13791.347 
    2155 1.1636841e-17   -796.72258            0   -796.72258    13791.347 
    2156 1.2702596e-17   -796.72258            0   -796.72258    13791.347 
    2157 1.3799289e-17   -796.72258            0   -796.72258    13791.347 
    2158 1.4953081e-17   -796.72258            0   -796.72258    13791.347 
    2159 1.6131245e-17   -796.72258            0   -796.72258    13791.347 
    2160 1.7438972e-17   -796.72258            0   -796.72258    13791.347 
    2161 1.9057335e-17   -796.72258            0   -796.72258    13791.347 
    2162 2.299296e-17   -796.72258            0   -796.72258    13791.347 
    2163 4.3265654e-17   -796.72258            0   -796.72258    13791.347 
    2164 2.0329318e-16   -796.72258            0   -796.72258    13791.347 
    2165 1.6964693e-15   -796.72258            0   -796.72258    13791.347 
    2166 1.7317739e-14   -796.72258            0   -796.72258    13791.347 
    2167 1.7590479e-13   -796.72258            0   -796.72258    13791.347 
    2168 5.3005333e-13   -796.72258            0   -796.72258    13791.347 
    2169 1.5537408e-14   -796.72258            0   -796.72258    13791.347 
    2170 1.6534642e-14   -796.72258            0   -796.72258    13791.347 
    2171 1.0555788e-14   -796.72258            0   -796.72258    13791.347 
    2172 3.1335638e-15   -796.72258            0   -796.72258    13791.347 
    2173 3.9153193e-16   -796.72258            0   -796.72258    13791.347 
    2174 1.8339584e-17   -796.72258            0   -796.72258    13791.347 
    2175 1.6002061e-18   -796.72258            0   -796.72258    13791.347 
    2176 1.8059138e-18   -796.72258            0   -796.72258    13791.347 
    2177 2.1556818e-18   -796.72258            0   -796.72258    13791.347 
    2178 2.5336625e-18   -796.72258            0   -796.72258    13791.347 
    2179 2.9414747e-18   -796.72258            0   -796.72258    13791.347 
    2180 3.3773237e-18   -796.72258            0   -796.72258    13791.347 
    2181 3.8420538e-18   -796.72258            0   -796.72258    13791.347 
    2182 4.3345248e-18   -796.72258            0   -796.72258    13791.347 
    2183 4.8543337e-18   -796.72258            0   -796.72258    13791.347 
    2184 5.400574e-18   -796.72258            0   -796.72258    13791.347 
    2185 5.9750395e-18   -796.72258            0   -796.72258    13791.347 
    2186 6.5722958e-18   -796.72258            0   -796.72258    13791.347 
    2187 7.1959146e-18   -796.72258            0   -796.72258    13791.347 
    2188 7.8453982e-18   -796.72258            0   -796.72258    13791.347 
    2189 8.5160041e-18   -796.72258            0   -796.72258    13791.347 
    2190 9.2178759e-18   -796.72258            0   -796.72258    13791.347 
    2191 9.9355185e-18   -796.72258            0   -796.72258    13791.347 
    2192 1.070888e-17   -796.72258            0   -796.72258    13791.347 
    2193 1.1583051e-17   -796.72258            0   -796.72258    13791.347 
    2194 1.3194055e-17   -796.72258            0   -796.72258    13791.347 
    2195 1.9594484e-17   -796.72258            0   -796.72258    13791.347 
    2196 6.7062977e-17   -796.72258            0   -796.72258    13791.347 
    2197 5.002846e-16   -796.72258            0   -796.72258    13791.347 
    2198 5.0763639e-15   -796.72258            0   -796.72258    13791.347 
    2199 5.9345637e-14   -796.72258            0   -796.72258    13791.347 
    2200 7.2262717e-13   -796.72258            0   -796.72258    13791.347 
    2201 3.448042e-12   -796.72258            0   -796.72258    13791.347 
    2202 2.4362552e-14   -796.72258            0   -796.72258    13791.347 
    2203 5.0035214e-14   -796.72258            0   -796.72258    13791.347 
    2204 7.4064179e-14   -796.72258            0   -796.72258    13791.347 
    2205 7.8654335e-14   -796.72258            0   -796.72258    13791.347 
    2206 5.0097678e-14   -796.72258            0   -796.72258    13791.347 
    2207 1.5204909e-14   -796.72258            0   -796.72258    13791.347 
    2208 2.0432392e-15   -796.72258            0   -796.72258    13791.347 
    2209 1.0688013e-16   -796.72258            0   -796.72258    13791.347 
    2210 2.1039909e-18   -796.72258            0   -796.72258    13791.347 
    2211 1.023926e-18   -796.72258            0   -796.72258    13791.347 
    2212 1.2166095e-18   -796.72258            0   -796.72258    13791.347 
    2213 1.4304484e-18   -796.72258            0   -796.72258    13791.347 
    2214 1.6612444e-18   -796.72258            0   -796.72258    13791.347 
    2215 1.9075524e-18   -796.72258            0   -796.72258    13791.347 
    2216 2.1708068e-18   -796.72258            0   -796.72258    13791.347 
    2217 2.4495455e-18   -796.72258            0   -796.72258    13791.347 
    2218 2.7451566e-18   -796.72258            0   -796.72258    13791.347 
    2219 3.0537047e-18   -796.72258            0   -796.72258    13791.347 
    2220 3.3801563e-18   -796.72258            0   -796.72258    13791.347 
    2221 3.719667e-18   -796.72258            0   -796.72258    13791.347 
    2222 4.0734781e-18   -796.72258            0   -796.72258    13791.347 
    2223 4.442594e-18   -796.72258            0   -796.72258    13791.347 
    2224 4.8256932e-18   -796.72258            0   -796.72258    13791.347 
    2225 5.2241015e-18   -796.72258            0   -796.72258    13791.347 
    2226 5.6408374e-18   -796.72258            0   -796.72258    13791.347 
    2227 6.1039891e-18   -796.72258            0   -796.72258    13791.347 
    2228 6.7640196e-18   -796.72258            0   -796.72258    13791.347 
    2229 8.7198149e-18   -796.72258            0   -796.72258    13791.347 
    2230 2.075442e-17   -796.72258            0   -796.72258    13791.347 
    2231 1.2257548e-16   -796.72258            0   -796.72258    13791.347 
    2232 1.1331769e-15   -796.72258            0   -796.72258    13791.347 
    2233 1.2511106e-14   -796.72258            0   -796.72258    13791.347 
    2234 1.5583128e-13   -796.72258            0   -796.72258    13791.347 
    2235 1.950821e-12   -796.72258            0   -796.72258    13791.347 
    2236 6.8068894e-12   -796.72258            0   -796.72258    13791.347 
    2237 2.2783112e-14   -796.72258            0   -796.72258    13791.347 
    2238 6.1427982e-14   -796.72258            0   -796.72258    13791.347 
    2239 1.0514454e-13   -796.72258            0   -796.72258    13791.347 
    2240 1.2725483e-13   -796.72258            0   -796.72258    13791.347 
    2241 9.8640275e-14   -796.72258            0   -796.72258    13791.347 
    2242 4.0225182e-14   -796.72258            0   -796.72258    13791.347 
    2243 7.6922483e-15   -796.72258            0   -796.72258    13791.347 
    2244 6.2549698e-16   -796.72258            0   -796.72258    13791.347 
    2245 1.503247e-17   -796.72258            0   -796.72258    13791.347 
    2246 5.5316994e-19   -796.72258            0   -796.72258    13791.347 
    2247 6.2405893e-19   -796.72258            0   -796.72258    13791.347 
    2248 7.3922986e-19   -796.72258            0   -796.72258    13791.347 
    2249 8.6429074e-19   -796.72258            0   -796.72258    13791.347 
    2250 9.9815392e-19   -796.72258            0   -796.72258    13791.347 
    2251 1.1421123e-18   -796.72258            0   -796.72258    13791.347 
    2252  1.29466e-18   -796.72258            0   -796.72258    13791.347 
    2253 1.4566358e-18   -796.72258            0   -796.72258    13791.347 
    2254 1.626228e-18   -796.72258            0   -796.72258    13791.347 
    2255 1.8066199e-18   -796.72258            0   -796.72258    13791.347 
    2256 1.9928405e-18   -796.72258            0   -796.72258    13791.347 
    2257 2.1907481e-18   -796.72258            0   -796.72258    13791.347 
    2258 2.3928141e-18   -796.72258            0   -796.72258    13791.347 
    2259 2.6099967e-18   -796.72258            0   -796.72258    13791.347 
    2260 2.8251684e-18   -796.72258            0   -796.72258    13791.347 
    2261 3.0663374e-18   -796.72258            0   -796.72258    13791.347 
    2262 3.2993705e-18   -796.72258            0   -796.72258    13791.347 
    2263 3.6491523e-18   -796.72258            0   -796.72258    13791.347 
    2264 4.2507513e-18   -796.72258            0   -796.72258    13791.347 
    2265 7.6461376e-18   -796.72258            0   -796.72258    13791.347 
    2266 3.1096585e-17   -796.72258            0   -796.72258    13791.347 
    2267 2.4731244e-16   -796.72258            0   -796.72258    13791.347 
    2268 2.4663061e-15   -796.72258            0   -796.72258    13791.347 
    2269 2.8467933e-14   -796.72258            0   -796.72258    13791.347 
    2270 3.6768609e-13   -796.72258            0   -796.72258    13791.347 
    2271 4.5194445e-12   -796.72258            0   -796.72258    13791.347 
    2272 8.5102182e-12   -796.72258            0   -796.72258    13791.347 
    2273 9.9389213e-14   -796.72258            0   -796.72258    13791.347 
    2274 1.2524722e-13   -796.72258            0   -796.72258    13791.347 
    2275 1.0130458e-13   -796.72258            0   -796.72258    13791.347 
    2276 4.5486551e-14   -796.72258            0   -796.72258    13791.347 
    2277 1.0340179e-14   -796.72258            0   -796.72258    13791.347 
    2278 1.0931287e-15   -796.72258            0   -796.72258    13791.347 
    2279 4.0616863e-17   -796.72258            0   -796.72258    13791.347 
    2280 5.0785115e-19   -796.72258            0   -796.72258    13791.347 
    2281 3.3357638e-19   -796.72258            0   -796.72258    13791.347 
    2282 3.9491163e-19   -796.72258            0   -796.72258    13791.347 
    2283 4.6322986e-19   -796.72258            0   -796.72258    13791.347 
    2284 5.3676588e-19   -796.72258            0   -796.72258    13791.347 
    2285 6.1535368e-19   -796.72258            0   -796.72258    13791.347 
    2286 6.9918894e-19   -796.72258            0   -796.72258    13791.347 
    2287 7.881279e-19   -796.72258            0   -796.72258    13791.347 
    2288 8.8184982e-19   -796.72258            0   -796.72258    13791.347 
    2289 9.8083971e-19   -796.72258            0   -796.72258    13791.347 
    2290 1.0840434e-18   -796.72258            0   -796.72258    13791.347 
    2291 1.1925425e-18   -796.72258            0   -796.72258    13791.347 
    2292 1.3063522e-18   -796.72258            0   -796.72258    13791.347 
    2293 1.4231613e-18   -796.72258            0   -796.72258    13791.347 
    2294 1.549712e-18   -796.72258            0   -796.72258    13791.347 
    2295 1.6756377e-18   -796.72258            0   -796.72258    13791.347 
    2296 1.8397274e-18   -796.72258            0   -796.72258    13791.347 
    2297 2.0832416e-18   -796.72258            0   -796.72258    13791.347 
    2298 3.1395323e-18   -796.72258            0   -796.72258    13791.347 
    2299 9.7430129e-18   -796.72258            0   -796.72258    13791.347 
    2300 6.7643233e-17   -796.72258            0   -796.72258    13791.347 
    2301 6.3604751e-16   -796.72258            0   -796.72258    13791.347 
    2302 7.0329517e-15   -796.72258            0   -796.72258    13791.347 
    2303 8.8160867e-14   -796.72258            0   -796.72258    13791.347 
    2304 1.2479733e-12   -796.72258            0   -796.72258    13791.347 
    2305 1.983081e-11   -796.72258            0   -796.72258    13791.347 
    2306 3.3696251e-10   -796.72258            0   -796.72258    13791.347 
    2307 2.8479206e-09   -796.72258            0   -796.72258    13791.347 
    2308 6.5718331e-12   -796.72258            0   -796.72258    13791.347 
Loop time of 421.229 on 16 procs for 842 steps with 127 atoms

99.1% CPU use with 16 MPI tasks x no OpenMP threads

Minimization stats:
  Stopping criterion = energy tolerance
  Energy initial, next-to-last, final = 
        -796.722579047     -796.722579047     -796.722579047
  Force two-norm initial, final = 3.06671e-07 1.26239e-05
  Force max component initial, final = 6.55425e-08 3.272e-06
  Final line search alpha, max atom move = 0 0
  Iterations, force evaluations = 842 842

MPI task timing breakdown:
Section |  min time  |  avg time  |  max time  |%varavg| %total
---------------------------------------------------------------
Pair    | 241.04     | 273.73     | 287.99     |  60.7 | 64.98
Neigh   | 0          | 0          | 0          |   0.0 |  0.00
Comm    | 0.05171    | 14.308     | 47.003     | 265.6 |  3.40
Output  | 0.14441    | 0.14578    | 0.14772    |   0.2 |  0.03
Modify  | 57.044     | 57.045     | 57.046     |   0.0 | 13.54
Other   |            | 76         |            |       | 18.04

Nlocal:    7.9375 ave 8 max 7 min
Histogram: 1 0 0 0 0 0 0 0 0 15
Nghost:    819.812 ave 824 max 816 min
Histogram: 4 0 0 0 0 8 0 1 1 2
Neighs:    0 ave 0 max 0 min
Histogram: 16 0 0 0 0 0 0 0 0 0
FullNghs:  1599.25 ave 1623 max 1416 min
Histogram: 1 0 0 0 0 0 0 0 1 14

Total # of neighbors = 25588
Ave neighs/atom = 201.48
Neighbor list builds = 0
Dangerous builds = 0
Total wall time: 0:19:23
