LAMMPS (12 Dec 2018)
Processor partition = 2
Reading data file ...
  orthogonal box = (0 0 0) to (10.0025 12.3537 10.615)
  2 by 4 by 2 MPI processor grid
  reading atoms ...
  127 atoms
Reading potential file lammps-force.nnp with DATE: 20201105
Neighbor list info ...
  update every 1 steps, delay 0 steps, check yes
  max neighbors/atom: 2000, page size: 100000
  master list distance cutoff = 8
  ghost atom cutoff = 8
  binsize = 4, bins = 3 4 3
  1 neighbor lists, perpetual/occasional/extra = 1 0 0
  (1) pair nnp3v, perpetual
      attributes: full, newton on
      pair build: full/bin/atomonly
      stencil: full/bin/3d
      bin: standard
Setting up quickmin style minimization ...
  Unit style    : metal
  Current step  : 0
Per MPI rank memory allocation (min/avg/max) = 2.736 | 2.736 | 2.736 Mbytes
Step Temp E_pair E_mol TotEng Press 
       0            0   -796.68047            0   -796.68047     13401.66 
       6  0.092325754   -796.68154            0   -796.68004    13408.421 
Loop time of 2.93958 on 16 procs for 6 steps with 127 atoms

95.8% CPU use with 16 MPI tasks x no OpenMP threads

Minimization stats:
  Stopping criterion = energy tolerance
  Energy initial, next-to-last, final = 
        -796.680469343     -796.681189813     -796.681544239
  Force two-norm initial, final = 0.292034 0.283352
  Force max component initial, final = 0.0445202 0.0435203
  Final line search alpha, max atom move = 0 0
  Iterations, force evaluations = 6 6

MPI task timing breakdown:
Section |  min time  |  avg time  |  max time  |%varavg| %total
---------------------------------------------------------------
Pair    | 1.8942     | 2.213      | 2.3937     |   8.1 | 75.28
Neigh   | 0          | 0          | 0          |   0.0 |  0.00
Comm    | 0.54536    | 0.72327    | 1.0449     |  14.3 | 24.60
Output  | 0          | 0          | 0          |   0.0 |  0.00
Modify  | 0          | 0          | 0          |   0.0 |  0.00
Other   |            | 0.003351   |            |       |  0.11

Nlocal:    7.9375 ave 8 max 7 min
Histogram: 1 0 0 0 0 0 0 0 0 15
Nghost:    819.812 ave 824 max 816 min
Histogram: 4 0 0 0 0 8 0 1 1 2
Neighs:    0 ave 0 max 0 min
Histogram: 16 0 0 0 0 0 0 0 0 0
FullNghs:  1602 ave 1623 max 1420 min
Histogram: 1 0 0 0 0 0 0 0 1 14

Total # of neighbors = 25632
Ave neighs/atom = 201.827
Neighbor list builds = 0
Dangerous builds = 0
Setting up quickmin style minimization ...
  Unit style    : metal
  Current step  : 0
Per MPI rank memory allocation (min/avg/max) = 4.736 | 4.737 | 4.737 Mbytes
Step Temp E_pair E_mol TotEng Press 
       0            0   -794.90152            0   -794.90152    17065.419 
       1    3.1852003   -794.90152            0   -794.84964    17107.663 
       2    13.625253   -795.00289            0   -794.78098    17131.793 
       3    32.513498   -795.19111            0   -794.66157    17168.421 
       4    60.783403   -795.43125            0   -794.44128    17243.007 
       5     92.76466   -795.66914            0    -794.1583    17237.666 
       6    113.31084   -795.86143            0   -794.01597    16827.246 
       7    110.08154   -795.99974            0   -794.20686    15904.645 
       8    100.37578   -796.09575            0   -794.46095    15053.613 
       9    93.883054   -796.16202            0   -794.63296    14579.795 
      10    92.233799   -796.20547            0   -794.70328     14470.17 
      11    132.14218   -796.20637            0    -794.0542    14682.161 
      12    7.7016898   -796.22423            0    -796.0988    13064.325 
      13    7.7344475   -796.23653            0   -796.11056    13119.686 
      14    4.7768992   -796.24276            0   -796.16496    13135.663 
      15    2.0198961   -796.24669            0    -796.2138    13121.449 
      16    1.9745307   -796.25066            0    -796.2185    13125.787 
      17    2.2956693    -796.2548            0   -796.21741    13132.279 
      18    2.6413123   -796.25909            0   -796.21607    13138.907 
      19     3.001179   -796.26348            0    -796.2146    13146.328 
      20    3.3744647   -796.26794            0   -796.21298    13155.048 
      21    3.7597844   -796.27244            0   -796.21121    13165.263 
      22    4.1562165   -796.27695            0   -796.20926    13177.032 
      23    4.5626671   -796.28144            0   -796.20713    13190.309 
      24    4.9782846   -796.28589            0   -796.20481     13205.03 
      25    5.4020607   -796.29029            0   -796.20231    13221.082 
      26      5.83325   -796.29462            0   -796.19962    13238.342 
      27    6.2706504   -796.29887            0   -796.19674    13256.603 
      28    6.7138378   -796.30303            0   -796.19368    13275.753 
      29    7.1608671   -796.30708            0   -796.19045    13295.477 
      30    7.6134736   -796.31102            0   -796.18703    13315.867 
      31    8.0642432   -796.31485            0   -796.18351    13335.852 
      32    8.5337848   -796.31855            0   -796.17956    13358.044 
      33    8.9706963   -796.32211            0     -796.176    13372.489 
      34    9.8887126   -796.32529            0   -796.16424    13422.157 
      35    13.136055   -796.32553            0   -796.11159    13396.311 
      36   0.52295468   -796.32699            0   -796.31848    13245.157 
      37   0.56191644   -796.32811            0   -796.31896    13264.287 
      38   0.43731739   -796.32879            0   -796.32167    13279.522 
      39   0.25855307   -796.32926            0   -796.32505    13286.754 
      40    0.2375405   -796.32971            0   -796.32584    13290.581 
      41   0.27556049    -796.3302            0   -796.32571    13293.505 
      42   0.32177798   -796.33073            0   -796.32549    13296.298 
      43   0.37155409   -796.33129            0   -796.32524    13299.183 
      44   0.42454868   -796.33189            0   -796.32498    13302.189 
      45   0.48065061   -796.33252            0   -796.32469    13305.316 
      46   0.53975889   -796.33318            0   -796.32439    13308.569 
      47   0.60176454   -796.33387            0   -796.32407    13311.937 
      48   0.66655688   -796.33458            0   -796.32373    13315.409 
      49   0.73402117   -796.33532            0   -796.32337    13318.974 
      50   0.80403704   -796.33608            0   -796.32299    13322.617 
      51   0.87648348   -796.33686            0   -796.32259    13326.319 
      52   0.95123651   -796.33766            0   -796.32217    13330.061 
      53    1.0281686   -796.33847            0   -796.32173    13333.831 
      54    1.1071515    -796.3393            0   -796.32127    13337.609 
      55    1.1880568   -796.34014            0   -796.32079    13341.376 
      56    1.2707527   -796.34099            0   -796.32029    13345.111 
      57    1.3551029   -796.34185            0   -796.31978    13348.793 
      58    1.4409724   -796.34271            0   -796.31924    13352.391 
      59    1.5282102   -796.34358            0   -796.31869    13355.896 
      60     1.616703   -796.34444            0   -796.31811    13359.287 
      61    1.7062805   -796.34531            0   -796.31752     13362.53 
      62    1.7968508   -796.34617            0   -796.31691    13365.605 
      63    1.8881416   -796.34704            0   -796.31628    13368.479 
      64    1.9802773   -796.34789            0   -796.31564    13371.197 
      65    2.0720744   -796.34874            0     -796.315    13373.525 
      66    2.1631329   -796.34958            0   -796.31435    13376.157 
      67    2.2044045    -796.3504            0    -796.3145    13375.746 
      68    1.6804459   -796.35103            0   -796.32367    13374.991 
      69  0.081796726   -796.35118            0   -796.34984    13350.643 
      70   0.10135843   -796.35133            0   -796.34968    13349.596 
      71   0.10869779    -796.3515            0   -796.34973    13349.789 
      72   0.12480288   -796.35167            0   -796.34964    13350.026 
      73   0.14194321   -796.35186            0   -796.34955    13350.267 
      74   0.16007291   -796.35206            0   -796.34945    13350.502 
      75   0.17916943   -796.35227            0   -796.34935    13350.731 
      76   0.19920355   -796.35249            0   -796.34924    13350.949 
      77   0.22014583   -796.35271            0   -796.34913    13351.153 
      78    0.2419649   -796.35295            0   -796.34901    13351.339 
      79   0.26462835   -796.35319            0   -796.34888    13351.503 
      80   0.28810232   -796.35345            0   -796.34876    13351.641 
      81   0.31235177   -796.35371            0   -796.34862     13351.75 
      82   0.33734045   -796.35398            0   -796.34848    13351.825 
      83   0.36303089   -796.35425            0   -796.34834    13351.862 
      84   0.38938461   -796.35454            0    -796.3482    13351.855 
      85   0.41636225   -796.35483            0   -796.34804    13351.802 
      86   0.44392277   -796.35512            0   -796.34789    13351.696 
      87   0.47202484   -796.35542            0   -796.34773    13351.534 
      88   0.50062541   -796.35572            0   -796.34757    13351.309 
      89   0.52968101   -796.35603            0   -796.34741    13351.017 
      90   0.55914645   -796.35635            0   -796.34724    13350.646 
      91   0.58895469   -796.35666            0   -796.34707    13350.225 
      92   0.61891939   -796.35698            0    -796.3469    13349.661 
      93   0.64780869    -796.3573            0   -796.34675    13349.172 
      94   0.66521072   -796.35762            0   -796.34679    13347.954 
      95   0.58137172   -796.35791            0   -796.34845    13346.834 
      96   0.16350519   -796.35806            0    -796.3554    13339.224 
      97  0.015347998   -796.35811            0   -796.35786    13337.503 
      98   0.02318509   -796.35816            0   -796.35778    13337.631 
      99  0.029311164   -796.35822            0   -796.35774    13337.546 
     100  0.035222647   -796.35829            0   -796.35771    13337.369 
     101  0.041593922   -796.35836            0   -796.35768    13337.156 
     102  0.048464101   -796.35844            0   -796.35765    13336.919 
     103  0.055824649   -796.35852            0   -796.35761    13336.658 
     104   0.06366537   -796.35861            0   -796.35758    13336.372 
     105  0.071975351   -796.35871            0   -796.35754     13336.06 
     106  0.080742971   -796.35881            0   -796.35749    13335.722 
     107  0.089955937   -796.35892            0   -796.35745    13335.355 
     108  0.099601281   -796.35903            0   -796.35741     13334.96 
     109   0.10966535   -796.35914            0   -796.35736    13334.534 
     110   0.12013388   -796.35927            0   -796.35731    13334.076 
     111   0.13099209   -796.35939            0   -796.35726    13333.582 
     112   0.14222495   -796.35952            0   -796.35721    13333.053 
     113   0.15381604   -796.35966            0   -796.35715    13332.488 
     114   0.16574861    -796.3598            0    -796.3571    13331.886 
     115   0.17800544   -796.35994            0   -796.35704    13331.245 
     116   0.19056875   -796.36009            0   -796.35699    13330.562 
     117   0.20341996   -796.36024            0   -796.35693    13329.829 
     118   0.21653945    -796.3604            0   -796.35687    13329.054 
     119   0.22990916   -796.36056            0   -796.35681    13328.235 
     120   0.24350837   -796.36072            0   -796.35675     13327.37 
     121    0.2573185   -796.36088            0   -796.35669    13326.459 
     122   0.27131628   -796.36105            0   -796.35663    13325.498 
     123   0.28548537   -796.36122            0   -796.35657    13324.491 
     124   0.29979555    -796.3614            0   -796.35651    13323.423 
     125   0.31424236   -796.36157            0   -796.35645    13322.321 
     126   0.32876847   -796.36175            0   -796.35639    13321.116 
     127   0.34343875   -796.36193            0   -796.35634        13320 
     128    0.3581419   -796.36211            0   -796.35628    13318.401 
     129   0.37426737   -796.36229            0    -796.3562    13318.134 
     130   0.40234197   -796.36246            0   -796.35591    13313.565 
     131    0.4354659   -796.36253            0   -796.35544    13321.249 
     132  0.033179184    -796.3626            0   -796.36206    13313.039 
     133  0.025169109   -796.36264            0   -796.36223    13310.682 
     134  0.015833031   -796.36268            0   -796.36242    13309.461 
     135  0.016027862   -796.36271            0   -796.36245    13308.984 
     136  0.018756565   -796.36275            0   -796.36245    13308.667 
     137  0.021827692   -796.36279            0   -796.36244    13308.341 
     138  0.025116504   -796.36284            0   -796.36243    13307.985 
     139   0.02861768   -796.36288            0   -796.36242    13307.601 
     140  0.032326819   -796.36293            0   -796.36241    13307.187 
     141  0.036238812   -796.36299            0    -796.3624    13306.746 
     142  0.040348232   -796.36304            0   -796.36239    13306.275 
     143   0.04464932    -796.3631            0   -796.36238    13305.776 
     144  0.049136053   -796.36316            0   -796.36236    13305.247 
     145    0.0538021   -796.36323            0   -796.36235    13304.689 
     146   0.05864087    -796.3633            0   -796.36234    13304.102 
     147  0.063645505   -796.36337            0   -796.36233    13303.485 
     148   0.06880888   -796.36344            0   -796.36232    13302.837 
     149   0.07412362   -796.36352            0   -796.36231     13302.16 
     150  0.079582103   -796.36359            0    -796.3623    13301.451 
     151  0.085176466   -796.36367            0   -796.36229    13300.711 
     152  0.090898633   -796.36376            0   -796.36228    13299.941 
     153  0.096740347   -796.36384            0   -796.36227    13299.138 
     154   0.10269309   -796.36393            0   -796.36226    13298.304 
     155   0.10874814   -796.36402            0   -796.36225    13297.439 
     156   0.11489663   -796.36411            0   -796.36224    13296.541 
     157   0.12112901    -796.3642            0   -796.36223     13295.61 
     158   0.12743632    -796.3643            0   -796.36222    13294.648 
     159    0.1338094    -796.3644            0   -796.36222    13293.652 
     160   0.14023855   -796.36449            0   -796.36221    13292.624 
     161   0.14671473    -796.3646            0   -796.36221    13291.562 
     162   0.15322636    -796.3647            0    -796.3622    13290.467 
     163   0.15976735    -796.3648            0    -796.3622    13289.337 
     164   0.16630041   -796.36491            0    -796.3622    13288.183 
     165   0.17274575   -796.36502            0    -796.3622    13286.964 
     166   0.17741064   -796.36512            0   -796.36223    13285.807 
     167   0.16291667   -796.36523            0   -796.36257    13284.041 
     168  0.047521638   -796.36528            0    -796.3645    13282.479 
     169 0.00082870794   -796.36528            0   -796.36527     13281.71 
     170 0.0013686619   -796.36529            0   -796.36527    13281.533 
     171 0.0021269692    -796.3653            0   -796.36527    13281.339 
     172 0.0030210984   -796.36531            0   -796.36526    13281.143 
     173 0.0039460448   -796.36533            0   -796.36526    13280.949 
     174 0.0049193772   -796.36534            0   -796.36526    13280.748 
     175 0.0059805262   -796.36536            0   -796.36527    13280.531 
     176 0.0071402034   -796.36538            0   -796.36527    13280.295 
     177 0.0083979436    -796.3654            0   -796.36527    13280.036 
     178  0.009751854   -796.36543            0   -796.36527    13279.756 
     179  0.011200005   -796.36545            0   -796.36527    13279.453 
     180  0.012740389   -796.36548            0   -796.36527    13279.128 
     181  0.014370876   -796.36551            0   -796.36528    13278.782 
     182  0.016089198   -796.36554            0   -796.36528    13278.413 
     183  0.017892956   -796.36557            0   -796.36528    13278.022 
     184  0.019779623   -796.36561            0   -796.36529    13277.609 
     185  0.021746548   -796.36564            0   -796.36529    13277.174 
     186  0.023790947   -796.36568            0    -796.3653    13276.716 
     187  0.025909894   -796.36572            0    -796.3653    13276.236 
     188  0.028100445   -796.36576            0   -796.36531    13275.734 
     189  0.030359454   -796.36581            0   -796.36531    13275.209 
     190  0.032683723   -796.36585            0   -796.36532    13274.663 
     191  0.035069887    -796.3659            0   -796.36532    13274.094 
     192  0.037514546   -796.36594            0   -796.36533    13273.504 
     193  0.040014144   -796.36599            0   -796.36534    13272.891 
     194  0.042565112   -796.36604            0   -796.36535    13272.257 
     195  0.045163691   -796.36609            0   -796.36536    13271.601 
     196  0.047806189   -796.36615            0   -796.36537    13270.924 
     197  0.050488589    -796.3662            0   -796.36538    13270.225 
     198  0.053207298   -796.36626            0   -796.36539    13269.504 
     199  0.055957657   -796.36631            0    -796.3654    13268.762 
     200  0.058737056   -796.36637            0   -796.36541    13267.997 
     201  0.061538027   -796.36643            0   -796.36543    13267.217 
     202   0.06436487   -796.36649            0   -796.36544    13266.399 
     203  0.067191645   -796.36655            0   -796.36546    13265.608 
     204  0.070082294   -796.36662            0   -796.36547    13264.655 
     205  0.072898291   -796.36668            0   -796.36549    13264.123 
     206  0.076862086   -796.36674            0   -796.36549    13262.139 
     207  0.087383127    -796.3668            0   -796.36538    13265.154 
     208   0.14384032   -796.36683            0   -796.36449    13255.191 
     209  0.019124567   -796.36686            0   -796.36655    13257.397 
     210 0.0092757462   -796.36688            0   -796.36673    13259.622 
     211  0.003752353   -796.36689            0   -796.36683     13259.89 
     212 0.0041126864    -796.3669            0   -796.36684    13259.727 
     213 0.0047654686   -796.36692            0   -796.36684    13259.514 
     214 0.0054616302   -796.36694            0   -796.36685    13259.284 
     215  0.006201331   -796.36695            0   -796.36685    13259.036 
     216 0.0069835377   -796.36697            0   -796.36686    13258.772 
     217 0.0078071772   -796.36699            0   -796.36687    13258.491 
     218 0.0086710684   -796.36701            0   -796.36687    13258.193 
     219 0.0095740121   -796.36704            0   -796.36688    13257.879 
     220  0.010514749   -796.36706            0   -796.36689    13257.549 
     221  0.011491948   -796.36708            0    -796.3669    13257.203 
     222  0.012504231   -796.36711            0   -796.36691    13256.841 
     223   0.01355016   -796.36714            0   -796.36692    13256.463 
     224  0.014628248   -796.36716            0   -796.36693    13256.069 
     225  0.015736958   -796.36719            0   -796.36694    13255.659 
     226  0.016874705   -796.36722            0   -796.36695    13255.233 
     227  0.018039862   -796.36725            0   -796.36696    13254.792 
     228  0.019230752   -796.36728            0   -796.36697    13254.336 
     229  0.020445663   -796.36732            0   -796.36698    13253.864 
     230  0.021682839   -796.36735            0     -796.367    13253.377 
     231  0.022940496   -796.36738            0   -796.36701    13252.875 
     232  0.024216795   -796.36742            0   -796.36702    13252.358 
     233   0.02550992   -796.36745            0   -796.36704    13251.824 
     234  0.026817916   -796.36749            0   -796.36705    13251.277 
     235  0.028139068   -796.36753            0   -796.36707    13250.714 
     236  0.029470892   -796.36757            0   -796.36709    13250.138 
     237    0.0308129   -796.36761            0    -796.3671    13249.543 
     238  0.032158926   -796.36765            0   -796.36712    13248.951 
     239  0.033519685   -796.36769            0   -796.36714    13248.291 
     240  0.034855337   -796.36773            0   -796.36716    13247.789 
     241  0.036319494   -796.36777            0   -796.36718    13246.702 
     242  0.037681068   -796.36781            0    -796.3672    13247.567 
     243  0.032199886   -796.36783            0   -796.36731    13243.815 
     244 0.0010483816   -796.36784            0   -796.36782    13243.988 
     245 0.0011691983   -796.36784            0   -796.36782    13244.558 
     246 0.0010937701   -796.36785            0   -796.36783    13244.959 
     247 0.0010424572   -796.36785            0   -796.36784     13245.11 
     248 0.0011846416   -796.36786            0   -796.36784    13245.089 
     249 0.0014199383   -796.36787            0   -796.36785    13244.989 
     250 0.0016873333   -796.36788            0   -796.36785    13244.859 
     251 0.0019769821   -796.36789            0   -796.36785    13244.714 
     252 0.0022880949    -796.3679            0   -796.36786    13244.557 
     253 0.0026203008   -796.36791            0   -796.36787    13244.388 
     254 0.0029731462   -796.36792            0   -796.36787    13244.208 
     255 0.0033461417   -796.36793            0   -796.36788    13244.015 
     256 0.0037387688   -796.36794            0   -796.36788    13243.811 
     257 0.0041504796   -796.36796            0   -796.36789    13243.595 
     258 0.0045806975   -796.36797            0    -796.3679    13243.368 
     259 0.0050288189   -796.36799            0   -796.36791    13243.129 
     260 0.0054942134     -796.368            0   -796.36791    13242.879 
     261 0.0059762246   -796.36802            0   -796.36792    13242.618 
     262 0.0064741709   -796.36804            0   -796.36793    13242.345 
     263 0.0069873467   -796.36805            0   -796.36794    13242.061 
     264  0.007515023   -796.36807            0   -796.36795    13241.766 
     265 0.0080564487   -796.36809            0   -796.36796     13241.46 
     266 0.0086108516   -796.36811            0   -796.36797    13241.142 
     267 0.0091774394   -796.36813            0   -796.36798    13240.815 
     268 0.0097554003   -796.36815            0   -796.36799    13240.476 
     269  0.010343905   -796.36817            0     -796.368    13240.127 
     270  0.010942107   -796.36819            0   -796.36802    13239.767 
     271  0.011549144   -796.36822            0   -796.36803    13239.397 
     272   0.01216414   -796.36824            0   -796.36804    13239.016 
     273  0.012786181   -796.36826            0   -796.36805    13238.626 
     274  0.013414363   -796.36829            0   -796.36807    13238.225 
     275  0.014047795   -796.36831            0   -796.36808    13237.814 
     276  0.014685553   -796.36833            0    -796.3681    13237.394 
     277  0.015326697   -796.36836            0   -796.36811    13236.964 
     278  0.015970236   -796.36839            0   -796.36812    13236.524 
     279  0.016614555   -796.36841            0   -796.36814    13236.076 
     280  0.017252057   -796.36844            0   -796.36816    13235.616 
     281  0.017797252   -796.36846            0   -796.36817    13235.157 
     282   0.01719253   -796.36849            0   -796.36821    13234.651 
     283 0.0078791476   -796.36851            0   -796.36838    13234.298 
     284 9.9255175e-05   -796.36851            0   -796.36851     13234.15 
     285 0.00017671823   -796.36851            0   -796.36851    13234.093 
     286 0.0002961579   -796.36851            0   -796.36851    13234.026 
     287 0.00042260479   -796.36852            0   -796.36851    13233.954 
     288 0.00053435316   -796.36852            0   -796.36851    13233.877 
     289 0.00064793404   -796.36853            0   -796.36852    13233.793 
     290 0.00077081585   -796.36853            0   -796.36852    13233.701 
     291 0.00090377705   -796.36854            0   -796.36852    13233.601 
     292 0.0010466785   -796.36854            0   -796.36853    13233.492 
     293 0.0011993258   -796.36855            0   -796.36853    13233.376 
     294 0.0013615105   -796.36856            0   -796.36853    13233.252 
     295 0.0015330097   -796.36856            0   -796.36854    13233.119 
     296 0.0017135873   -796.36857            0   -796.36854    13232.979 
     297 0.0019029935   -796.36858            0   -796.36855     13232.83 
     298 0.0021009658   -796.36859            0   -796.36855    13232.673 
     299  0.002307229    -796.3686            0   -796.36856    13232.509 
     300 0.0025214957   -796.36861            0   -796.36856    13232.337 
     301 0.0027434666   -796.36862            0   -796.36857    13232.157 
     302 0.0029728309   -796.36863            0   -796.36858    13231.969 
     303 0.0032092671   -796.36864            0   -796.36858    13231.773 
     304 0.0034524428   -796.36865            0   -796.36859     13231.57 
     305 0.0037020157   -796.36866            0    -796.3686     13231.36 
     306 0.0039576335   -796.36867            0    -796.3686    13231.142 
     307 0.0042189363   -796.36868            0   -796.36861    13230.916 
     308 0.0044855623   -796.36869            0   -796.36862    13230.683 
     309 0.0047571301   -796.36871            0   -796.36863    13230.442 
     310 0.0050332494   -796.36872            0   -796.36864    13230.194 
     311 0.0053135272   -796.36873            0   -796.36865    13229.939 
     312 0.0055975655   -796.36874            0   -796.36865    13229.677 
     313 0.0058849552   -796.36876            0   -796.36866    13229.409 
     314 0.0061752908   -796.36877            0   -796.36867    13229.133 
     315 0.0064681432   -796.36879            0   -796.36868     13228.85 
     316 0.0067631162    -796.3688            0   -796.36869    13228.561 
     317 0.0070597314   -796.36881            0    -796.3687    13228.265 
     318 0.0073576841   -796.36883            0   -796.36871    13227.963 
     319 0.0076562811   -796.36884            0   -796.36872    13227.653 
     320 0.0079558754   -796.36886            0   -796.36873     13227.34 
     321 0.0082564558   -796.36887            0   -796.36874    13227.011 
     322 0.0085857922   -796.36889            0   -796.36875    13226.717 
     323 0.0092803648    -796.3689            0   -796.36875    13226.273 
     324  0.010651424   -796.36891            0   -796.36874    13226.427 
     325 0.00026968871   -796.36891            0   -796.36891    13226.207 
     326 0.00032634668   -796.36892            0   -796.36891    13226.113 
     327 0.00031560035   -796.36892            0   -796.36891    13226.018 
     328 0.0002505966   -796.36892            0   -796.36891    13225.936 
     329 0.00022857238   -796.36892            0   -796.36892    13225.872 
     330 0.00026132355   -796.36892            0   -796.36892    13225.815 
     331 0.00031214229   -796.36893            0   -796.36892    13225.755 
     332 0.00036907015   -796.36893            0   -796.36892    13225.691 
     333 0.00043058383   -796.36893            0   -796.36892    13225.621 
     334 0.00049653162   -796.36894            0   -796.36893    13225.545 
     335 0.00056682835   -796.36894            0   -796.36893    13225.464 
     336 0.00064138046   -796.36894            0   -796.36893    13225.377 
     337 0.00072008687   -796.36895            0   -796.36893    13225.285 
     338 0.00080284044   -796.36895            0   -796.36894    13225.188 
     339 0.00088952816   -796.36896            0   -796.36894    13225.084 
     340 0.00098003136   -796.36896            0   -796.36894    13224.976 
     341 0.0010742258   -796.36896            0   -796.36895    13224.862 
     342  0.001171982   -796.36897            0   -796.36895    13224.743 
     343 0.0012731655   -796.36897            0   -796.36895    13224.619 
     344 0.0013776359   -796.36898            0   -796.36896    13224.489 
     345 0.0014852475   -796.36899            0   -796.36896    13224.354 
     346 0.0015958519   -796.36899            0   -796.36897    13224.214 
     347 0.0017092955     -796.369            0   -796.36897    13224.068 
     348 0.0018254204     -796.369            0   -796.36897    13223.918 
     349  0.001944065   -796.36901            0   -796.36898    13223.762 
     350 0.0020650634   -796.36902            0   -796.36898    13223.602 
     351 0.0021882468   -796.36902            0   -796.36899    13223.437 
     352 0.0023134424   -796.36903            0   -796.36899    13223.266 
     353 0.0024404757   -796.36904            0     -796.369    13223.091 
     354 0.0025691667   -796.36904            0     -796.369    13222.911 
     355 0.0026993371   -796.36905            0   -796.36901    13222.727 
     356 0.0028307978   -796.36906            0   -796.36901    13222.537 
     357  0.002963378   -796.36906            0   -796.36901    13222.343 
     358 0.0030968512   -796.36907            0   -796.36902    13222.145 
     359 0.0032311354   -796.36908            0   -796.36902    13221.942 
     360 0.0033657268   -796.36908            0   -796.36903    13221.736 
     361 0.0035013326   -796.36909            0   -796.36903     13221.52 
     362 0.0036343741    -796.3691            0   -796.36904    13221.316 
     363 0.0037693877   -796.36911            0   -796.36904    13221.057 
     364 0.0037946358   -796.36911            0   -796.36905    13220.978 
     365  0.002367683   -796.36912            0   -796.36908    13220.602 
     366 2.8215106e-05   -796.36912            0   -796.36912    13220.585 
     367 4.2765645e-05   -796.36912            0   -796.36912    13220.602 
     368 5.5755225e-05   -796.36912            0   -796.36912    13220.615 
     369 6.5139623e-05   -796.36912            0   -796.36912     13220.62 
     370 7.4496498e-05   -796.36912            0   -796.36912    13220.611 
     371 8.9347259e-05   -796.36912            0   -796.36912    13220.589 
     372 0.00010945239   -796.36912            0   -796.36912    13220.558 
     373 0.00013272323   -796.36912            0   -796.36912     13220.52 
     374 0.00015830726   -796.36912            0   -796.36912    13220.477 
     375 0.00018603747   -796.36912            0   -796.36912    13220.431 
     376 0.00021587428   -796.36913            0   -796.36912     13220.38 
     377 0.00024778093   -796.36913            0   -796.36912    13220.326 
     378 0.00028171552   -796.36913            0   -796.36912    13220.268 
     379 0.00031763284   -796.36913            0   -796.36913    13220.206 
     380 0.00035548488   -796.36913            0   -796.36913     13220.14 
     381 0.00039522087   -796.36913            0   -796.36913     13220.07 
     382 0.0004367874   -796.36914            0   -796.36913    13219.997 
     383 0.00048012846   -796.36914            0   -796.36913     13219.92 
     384 0.00052518551   -796.36914            0   -796.36913    13219.839 
     385 0.00057189757   -796.36914            0   -796.36913    13219.754 
     386 0.00062020132   -796.36914            0   -796.36913    13219.666 
     387 0.00067003114   -796.36915            0   -796.36914    13219.574 
     388 0.00072131926   -796.36915            0   -796.36914    13219.479 
     389 0.0007739955   -796.36915            0   -796.36914     13219.38 
     390 0.00082798813   -796.36915            0   -796.36914    13219.277 
     391 0.00088322346   -796.36916            0   -796.36914    13219.171 
     392 0.00093962595   -796.36916            0   -796.36914    13219.061 
     393 0.00099711828   -796.36916            0   -796.36915    13218.948 
     394 0.0010556214   -796.36917            0   -796.36915    13218.831 
     395 0.0011150548   -796.36917            0   -796.36915    13218.711 
     396 0.0011753372   -796.36917            0   -796.36915    13218.587 
     397 0.0012363849   -796.36917            0   -796.36915     13218.46 
     398 0.0012981149   -796.36918            0   -796.36915     13218.33 
     399 0.0013604398   -796.36918            0   -796.36916    13218.196 
     400 0.0014232785   -796.36918            0   -796.36916     13218.06 
     401 0.0014865316   -796.36918            0   -796.36916     13217.92 
     402 0.0015501517   -796.36919            0   -796.36916    13217.776 
     403 0.0016139919   -796.36919            0   -796.36916    13217.632 
     404 0.0016788366   -796.36919            0   -796.36916    13217.477 
     405 0.0017502498   -796.36919            0   -796.36916    13217.343 
     406  0.001922405    -796.3692            0   -796.36916    13217.125 
     407 0.0030692891    -796.3692            0   -796.36915    13217.219 
     408  0.001752641    -796.3692            0   -796.36917    13216.955 
     409 0.00011806005    -796.3692            0    -796.3692     13216.94 
     410 7.8638891e-05    -796.3692            0    -796.3692    13216.915 
     411 9.1007692e-05    -796.3692            0    -796.3692    13216.882 
     412 0.00010559279    -796.3692            0    -796.3692    13216.846 
     413 0.00012119146    -796.3692            0    -796.3692    13216.808 
     414 0.00013778282    -796.3692            0    -796.3692    13216.766 
     415 0.00015534505    -796.3692            0    -796.3692    13216.722 
     416 0.00017385519    -796.3692            0    -796.3692    13216.675 
     417 0.00019328893    -796.3692            0    -796.3692    13216.625 
     418 0.00021362067    -796.3692            0    -796.3692    13216.573 
     419 0.0002348236    -796.3692            0    -796.3692    13216.518 
     420 0.00025686966    -796.3692            0    -796.3692     13216.46 
     421 0.00027972965    -796.3692            0    -796.3692      13216.4 
     422 0.00030337332    -796.3692            0    -796.3692    13216.337 
     423 0.00032776917    -796.3692            0    -796.3692    13216.271 
     424 0.00035288472   -796.36921            0    -796.3692    13216.203 
     425 0.00037868641   -796.36921            0    -796.3692    13216.132 
     426 0.00040513984   -796.36921            0    -796.3692    13216.059 
     427 0.00043220967   -796.36921            0    -796.3692    13215.983 
     428 0.00045985971   -796.36921            0    -796.3692    13215.904 
     429 0.00048805292   -796.36921            0    -796.3692    13215.824 
     430 0.0005167515   -796.36921            0    -796.3692     13215.74 
     431 0.00054591693   -796.36921            0    -796.3692    13215.654 
     432 0.00057551008   -796.36921            0    -796.3692    13215.566 
     433 0.00060549097   -796.36921            0    -796.3692    13215.475 
     434 0.00063581964   -796.36921            0    -796.3692    13215.382 
     435 0.00066645428   -796.36921            0    -796.3692    13215.286 
     436 0.00069735614   -796.36921            0    -796.3692    13215.189 
     437 0.00072847716   -796.36921            0    -796.3692    13215.088 
     438 0.00075980519   -796.36921            0    -796.3692    13214.986 
     439 0.00079136702   -796.36921            0    -796.3692    13214.881 
     440 0.00082512552   -796.36921            0   -796.36919    13214.775 
     441 0.00087805077   -796.36921            0   -796.36919    13214.673 
     442  0.000686266   -796.36921            0    -796.3692    13214.614 
     443 1.8695645e-05   -796.36921            0   -796.36921    13214.599 
     444 2.2021466e-05   -796.36921            0   -796.36921     13214.59 
     445 2.1842404e-05   -796.36921            0   -796.36921    13214.578 
     446 2.1248747e-05   -796.36921            0   -796.36921    13214.563 
     447 2.393288e-05   -796.36921            0   -796.36921    13214.547 
     448 2.8958656e-05   -796.36921            0   -796.36921    13214.528 
     449 3.4946854e-05   -796.36921            0   -796.36921    13214.507 
     450 4.1525753e-05   -796.36921            0   -796.36921    13214.484 
     451 4.8646691e-05   -796.36921            0   -796.36921    13214.459 
     452 5.6299121e-05   -796.36921            0   -796.36921    13214.432 
     453 6.4473375e-05   -796.36921            0   -796.36921    13214.403 
     454 7.3159059e-05   -796.36921            0    -796.3692    13214.372 
     455 8.2345092e-05   -796.36921            0    -796.3692    13214.339 
     456 9.2019715e-05   -796.36921            0    -796.3692    13214.304 
     457 0.00010217051   -796.36921            0    -796.3692    13214.267 
     458 0.00011278442    -796.3692            0    -796.3692    13214.228 
     459 0.00012384777    -796.3692            0    -796.3692    13214.187 
     460 0.00013534626    -796.3692            0    -796.3692    13214.144 
     461 0.00014726501    -796.3692            0    -796.3692    13214.099 
     462 0.00015958857    -796.3692            0    -796.3692    13214.052 
     463 0.00017230096    -796.3692            0    -796.3692    13214.003 
     464 0.00018538565    -796.3692            0    -796.3692    13213.952 
     465 0.00019882562    -796.3692            0    -796.3692      13213.9 
     466 0.00021260336    -796.3692            0    -796.3692    13213.845 
     467 0.00022670091    -796.3692            0    -796.3692    13213.789 
     468 0.00024109987    -796.3692            0    -796.3692     13213.73 
     469 0.00025578144    -796.3692            0   -796.36919     13213.67 
     470 0.00027072641    -796.3692            0   -796.36919    13213.608 
     471 0.00028591524    -796.3692            0   -796.36919    13213.544 
     472 0.00030132805    -796.3692            0   -796.36919    13213.479 
     473 0.00031694463   -796.36919            0   -796.36919    13213.411 
     474 0.00033274451   -796.36919            0   -796.36919    13213.342 
     475 0.00034870694   -796.36919            0   -796.36919    13213.271 
     476 0.00036481081   -796.36919            0   -796.36918    13213.198 
     477 0.0003810337   -796.36919            0   -796.36918    13213.123 
     478 0.00039734116   -796.36919            0   -796.36918    13213.047 
     479 0.00041356923   -796.36918            0   -796.36918    13212.969 
     480 0.00042795755   -796.36918            0   -796.36918     13212.89 
     481 0.00041850507   -796.36918            0   -796.36917    13212.809 
     482 0.00021408724   -796.36918            0   -796.36918    13212.754 
     483 3.7178677e-06   -796.36918            0   -796.36918    13212.744 
     484 6.991013e-06   -796.36918            0   -796.36918    13212.734 
     485 1.127888e-05   -796.36918            0   -796.36918    13212.721 
     486 1.4684662e-05   -796.36918            0   -796.36918    13212.707 
     487 1.7843662e-05   -796.36918            0   -796.36918    13212.692 
     488 2.1243875e-05   -796.36918            0   -796.36918    13212.675 
     489 2.492592e-05   -796.36918            0   -796.36918    13212.656 
     490 2.8886276e-05   -796.36918            0   -796.36918    13212.636 
     491 3.3120071e-05   -796.36918            0   -796.36918    13212.615 
     492 3.762207e-05   -796.36918            0   -796.36917    13212.592 
     493 4.2386685e-05   -796.36917            0   -796.36917    13212.568 
     494 4.7407982e-05   -796.36917            0   -796.36917    13212.542 
     495 5.2679692e-05   -796.36917            0   -796.36917    13212.514 
     496 5.8195218e-05   -796.36917            0   -796.36917    13212.485 
     497 6.3947642e-05   -796.36917            0   -796.36917    13212.455 
     498 6.9929738e-05   -796.36917            0   -796.36917    13212.423 
     499 7.6133975e-05   -796.36917            0   -796.36917     13212.39 
     500 8.2552534e-05   -796.36917            0   -796.36917    13212.355 
     501 8.9177314e-05   -796.36917            0   -796.36917    13212.318 
     502 9.5999943e-05   -796.36917            0   -796.36916    13212.281 
     503 0.00010301179   -796.36917            0   -796.36916    13212.242 
     504 0.00011020398   -796.36916            0   -796.36916    13212.201 
     505 0.00011756739   -796.36916            0   -796.36916    13212.159 
     506 0.00012509269   -796.36916            0   -796.36916    13212.116 
     507 0.00013277033   -796.36916            0   -796.36916    13212.071 
     508 0.00014059054   -796.36916            0   -796.36916    13212.025 
     509 0.0001485434   -796.36916            0   -796.36915    13211.977 
     510 0.00015661879   -796.36915            0   -796.36915    13211.928 
     511 0.00016480643   -796.36915            0   -796.36915    13211.878 
     512 0.0001730959   -796.36915            0   -796.36915    13211.826 
     513 0.00018147663   -796.36915            0   -796.36915    13211.773 
     514 0.00018993796   -796.36915            0   -796.36914    13211.718 
     515 0.00019846884   -796.36914            0   -796.36914    13211.663 
     516 0.00020705708   -796.36914            0   -796.36914    13211.606 
     517 0.00021567035   -796.36914            0   -796.36914    13211.547 
     518 0.00022404531   -796.36914            0   -796.36913    13211.487 
     519 0.0002285299   -796.36913            0   -796.36913    13211.431 
     520 0.00018407068   -796.36913            0   -796.36913    13211.361 
     521 1.7903336e-05   -796.36913            0   -796.36913    13211.358 
     522 7.5736863e-06   -796.36913            0   -796.36913    13211.344 
     523 9.3725603e-06   -796.36913            0   -796.36913    13211.332 
     524 1.1171397e-05   -796.36913            0   -796.36913     13211.32 
     525 1.3120071e-05   -796.36913            0   -796.36913    13211.306 
     526 1.5217287e-05   -796.36913            0   -796.36913    13211.291 
     527 1.7460513e-05   -796.36913            0   -796.36913    13211.275 
     528 1.9847056e-05   -796.36913            0   -796.36913    13211.257 
     529 2.2374042e-05   -796.36913            0   -796.36912    13211.239 
     530 2.5038417e-05   -796.36912            0   -796.36912    13211.219 
     531 2.7836952e-05   -796.36912            0   -796.36912    13211.199 
     532 3.0766247e-05   -796.36912            0   -796.36912    13211.177 
     533 3.3822736e-05   -796.36912            0   -796.36912    13211.154 
     534 3.7002693e-05   -796.36912            0   -796.36912     13211.13 
     535 4.0302232e-05   -796.36912            0   -796.36912    13211.104 
     536 4.3717319e-05   -796.36912            0   -796.36912    13211.078 
     537 4.7243769e-05   -796.36912            0   -796.36912    13211.051 
     538 5.0877259e-05   -796.36911            0   -796.36911    13211.022 
     539 5.4613328e-05   -796.36911            0   -796.36911    13210.993 
     540 5.8447388e-05   -796.36911            0   -796.36911    13210.962 
     541 6.2374722e-05   -796.36911            0   -796.36911     13210.93 
     542  6.63905e-05   -796.36911            0   -796.36911    13210.897 
     543 7.0489775e-05   -796.36911            0    -796.3691    13210.863 
     544 7.4667501e-05    -796.3691            0    -796.3691    13210.828 
     545 7.891852e-05    -796.3691            0    -796.3691    13210.792 
     546 8.3237609e-05    -796.3691            0    -796.3691    13210.755 
     547 8.7619384e-05    -796.3691            0    -796.3691    13210.717 
     548 9.2058552e-05    -796.3691            0   -796.36909    13210.678 
     549 9.6548969e-05   -796.36909            0   -796.36909    13210.637 
     550  0.000101084   -796.36909            0   -796.36909    13210.596 
     551 0.00010562994   -796.36909            0   -796.36909    13210.554 
     552 0.00010992069   -796.36909            0   -796.36908    13210.509 
     553 0.00011060337   -796.36908            0   -796.36908    13210.473 
     554 7.6813986e-05   -796.36908            0   -796.36908    13210.415 
     555 4.8398142e-06   -796.36908            0   -796.36908    13210.419 
     556 6.8695149e-06   -796.36908            0   -796.36908    13210.412 
     557  7.95688e-06   -796.36908            0   -796.36908      13210.4 
     558 9.2073436e-06   -796.36908            0   -796.36908    13210.388 
     559 1.0545405e-05   -796.36908            0   -796.36908    13210.375 
     560 1.1967813e-05   -796.36908            0   -796.36908    13210.361 
     561 1.3472957e-05   -796.36908            0   -796.36908    13210.346 
     562 1.5059002e-05   -796.36907            0   -796.36907    13210.331 
     563 1.6724105e-05   -796.36907            0   -796.36907    13210.314 
     564 1.8466271e-05   -796.36907            0   -796.36907    13210.297 
     565 2.0283454e-05   -796.36907            0   -796.36907    13210.278 
     566 2.2173476e-05   -796.36907            0   -796.36907    13210.259 
     567 2.4134108e-05   -796.36907            0   -796.36907    13210.239 
     568 2.6162988e-05   -796.36907            0   -796.36907    13210.217 
     569 2.8257727e-05   -796.36907            0   -796.36906    13210.195 
     570 3.0415775e-05   -796.36906            0   -796.36906    13210.173 
     571 3.2634622e-05   -796.36906            0   -796.36906    13210.149 
     572 3.4911467e-05   -796.36906            0   -796.36906    13210.124 
     573 3.7243768e-05   -796.36906            0   -796.36906    13210.099 
     574 3.9627982e-05   -796.36906            0   -796.36906    13210.073 
     575 4.2060948e-05   -796.36905            0   -796.36905    13210.045 
     576  4.45301e-05   -796.36905            0   -796.36905    13210.018 
     577 4.6992537e-05   -796.36905            0   -796.36905    13209.988 
     578 4.9122328e-05   -796.36905            0   -796.36905    13209.961 
     579 4.8755671e-05   -796.36905            0   -796.36905    13209.924 
     580 3.4260563e-05   -796.36904            0   -796.36904    13209.916 
     581 6.4084006e-06   -796.36904            0   -796.36904    13209.892 
     582 4.5363687e-06   -796.36904            0   -796.36904    13209.886 
     583 5.2695957e-06   -796.36904            0   -796.36904    13209.877 
     584 6.118746e-06   -796.36904            0   -796.36904    13209.867 
     585 7.0288693e-06   -796.36904            0   -796.36904    13209.856 
     586 7.9978834e-06   -796.36904            0   -796.36904    13209.844 
     587 9.0247143e-06   -796.36904            0   -796.36904    13209.831 
     588 1.0108136e-05   -796.36904            0   -796.36904    13209.818 
     589 1.1246913e-05   -796.36904            0   -796.36904    13209.804 
     590 1.2439708e-05   -796.36904            0   -796.36904     13209.79 
     591 1.3685144e-05   -796.36903            0   -796.36903    13209.774 
     592 1.4981758e-05   -796.36903            0   -796.36903    13209.758 
     593 1.6328048e-05   -796.36903            0   -796.36903    13209.741 
     594 1.7722423e-05   -796.36903            0   -796.36903    13209.723 
     595 1.916327e-05   -796.36903            0   -796.36903    13209.704 
     596 2.0648868e-05   -796.36903            0   -796.36903    13209.685 
     597 2.2177519e-05   -796.36903            0   -796.36903    13209.665 
     598 2.3747332e-05   -796.36902            0   -796.36902    13209.644 
     599 2.5356564e-05   -796.36902            0   -796.36902    13209.622 
     600 2.7002789e-05   -796.36902            0   -796.36902      13209.6 
     601 2.8683553e-05   -796.36902            0   -796.36902    13209.577 
     602 3.038868e-05   -796.36902            0   -796.36902    13209.554 
     603 3.2077058e-05   -796.36902            0   -796.36902    13209.528 
     604 3.3439435e-05   -796.36901            0   -796.36901    13209.506 
     605 3.237492e-05   -796.36901            0   -796.36901    13209.474 
     606 1.9379684e-05   -796.36901            0   -796.36901    13209.469 
     607 2.7170076e-06   -796.36901            0   -796.36901    13209.454 
     608 3.0951469e-06   -796.36901            0   -796.36901    13209.446 
     609 3.645197e-06   -796.36901            0   -796.36901    13209.438 
     610 4.2393731e-06   -796.36901            0   -796.36901     13209.43 
     611 4.8759228e-06   -796.36901            0   -796.36901    13209.421 
     612 5.5541424e-06   -796.36901            0   -796.36901    13209.411 
     613 6.2732548e-06     -796.369            0     -796.369      13209.4 
     614 7.0324474e-06     -796.369            0     -796.369    13209.389 
     615 7.8308532e-06     -796.369            0     -796.369    13209.377 
     616 8.6675625e-06     -796.369            0     -796.369    13209.364 
     617 9.5416166e-06     -796.369            0     -796.369    13209.351 
     618 1.0452015e-05     -796.369            0     -796.369    13209.337 
     619 1.1397711e-05     -796.369            0     -796.369    13209.322 
     620 1.2377618e-05     -796.369            0     -796.369    13209.307 
     621 1.3390607e-05     -796.369            0     -796.369    13209.291 
     622 1.4435512e-05   -796.36899            0   -796.36899    13209.274 
     623 1.5511121e-05   -796.36899            0   -796.36899    13209.257 
     624 1.6616203e-05   -796.36899            0   -796.36899    13209.239 
     625 1.7749455e-05   -796.36899            0   -796.36899    13209.221 
     626 1.8909599e-05   -796.36899            0   -796.36899    13209.202 
     627 2.0095123e-05   -796.36899            0   -796.36899    13209.182 
     628 2.130448e-05   -796.36898            0   -796.36898    13209.162 
     629 2.2533004e-05   -796.36898            0   -796.36898    13209.141 
     630 2.3760954e-05   -796.36898            0   -796.36898    13209.119 
     631 2.4823083e-05   -796.36898            0   -796.36898    13209.098 
     632 2.4392053e-05   -796.36898            0   -796.36898    13209.072 
     633 1.4982333e-05   -796.36897            0   -796.36897    13209.064 
     634 1.5386421e-06   -796.36897            0   -796.36897    13209.053 
     635 2.0148954e-06   -796.36897            0   -796.36897    13209.046 
     636 2.3793098e-06   -796.36897            0   -796.36897     13209.04 
     637 2.779926e-06   -796.36897            0   -796.36897    13209.033 
     638 3.2101783e-06   -796.36897            0   -796.36897    13209.025 
     639 3.6695508e-06   -796.36897            0   -796.36897    13209.017 
     640 4.1575182e-06   -796.36897            0   -796.36897    13209.008 
     641 4.6735405e-06   -796.36897            0   -796.36897    13208.998 
     642 5.2170379e-06   -796.36897            0   -796.36897    13208.988 
     643 5.7874027e-06   -796.36897            0   -796.36897    13208.978 
     644 6.3839921e-06   -796.36897            0   -796.36897    13208.967 
     645 7.0061357e-06   -796.36896            0   -796.36896    13208.955 
     646 7.6531297e-06   -796.36896            0   -796.36896    13208.943 
     647 8.3242448e-06   -796.36896            0   -796.36896     13208.93 
     648 9.0187184e-06   -796.36896            0   -796.36896    13208.916 
     649 9.7357676e-06   -796.36896            0   -796.36896    13208.902 
     650 1.0474571e-05   -796.36896            0   -796.36896    13208.888 
     651 1.1234298e-05   -796.36896            0   -796.36896    13208.873 
     652 1.2014048e-05   -796.36896            0   -796.36896    13208.857 
     653 1.2812921e-05   -796.36895            0   -796.36895    13208.841 
     654 1.3629544e-05   -796.36895            0   -796.36895    13208.825 
     655 1.4461146e-05   -796.36895            0   -796.36895    13208.807 
     656 1.5292011e-05   -796.36895            0   -796.36895     13208.79 
     657 1.6018692e-05   -796.36895            0   -796.36895    13208.771 
     658 1.5834941e-05   -796.36895            0   -796.36894    13208.755 
     659 1.0420829e-05   -796.36894            0   -796.36894    13208.735 
     660 1.4389305e-06   -796.36894            0   -796.36894    13208.734 
     661 1.466919e-06   -796.36894            0   -796.36894    13208.728 
     662 1.7330681e-06   -796.36894            0   -796.36894    13208.722 
     663 2.0226008e-06   -796.36894            0   -796.36894    13208.716 
     664 2.3333966e-06   -796.36894            0   -796.36894    13208.709 
     665 2.6650862e-06   -796.36894            0   -796.36894    13208.702 
     666 3.0172981e-06   -796.36894            0   -796.36894    13208.694 
     667 3.3896467e-06   -796.36894            0   -796.36894    13208.686 
     668 3.7817199e-06   -796.36894            0   -796.36894    13208.677 
     669 4.1930848e-06   -796.36894            0   -796.36894    13208.668 
     670 4.6232845e-06   -796.36894            0   -796.36894    13208.658 
     671 5.0718419e-06   -796.36893            0   -796.36893    13208.648 
     672 5.5382565e-06   -796.36893            0   -796.36893    13208.637 
     673 6.0220096e-06   -796.36893            0   -796.36893    13208.626 
     674 6.5225588e-06   -796.36893            0   -796.36893    13208.615 
     675 7.039347e-06   -796.36893            0   -796.36893    13208.603 
     676 7.5717872e-06   -796.36893            0   -796.36893     13208.59 
     677 8.1192821e-06   -796.36893            0   -796.36893    13208.577 
     678 8.6811453e-06   -796.36893            0   -796.36893    13208.563 
     679 9.2565264e-06   -796.36892            0   -796.36892    13208.549 
     680 9.8431702e-06   -796.36892            0   -796.36892    13208.535 
     681 1.0431035e-05   -796.36892            0   -796.36892     13208.52 
     682 1.0951258e-05   -796.36892            0   -796.36892    13208.505 
     683 1.0907133e-05   -796.36892            0   -796.36892    13208.488 
     684 7.586249e-06   -796.36892            0   -796.36892    13208.478 
     685 1.2705247e-06   -796.36892            0   -796.36892    13208.471 
     686 1.0013262e-06   -796.36892            0   -796.36892    13208.467 
     687 1.1837986e-06   -796.36891            0   -796.36891    13208.462 
     688 1.3889895e-06   -796.36891            0   -796.36891    13208.457 
     689 1.6099707e-06   -796.36891            0   -796.36891    13208.451 
     690 1.8463692e-06   -796.36891            0   -796.36891    13208.445 
     691 2.0979246e-06   -796.36891            0   -796.36891    13208.438 
     692 2.3643617e-06   -796.36891            0   -796.36891    13208.431 
     693 2.6453909e-06   -796.36891            0   -796.36891    13208.424 
     694 2.9407046e-06   -796.36891            0   -796.36891    13208.416 
     695 3.2499801e-06   -796.36891            0   -796.36891    13208.408 
     696 3.5728774e-06   -796.36891            0   -796.36891    13208.399 
     697 3.9090421e-06   -796.36891            0   -796.36891     13208.39 
     698 4.2581031e-06   -796.36891            0   -796.36891     13208.38 
     699 4.619676e-06    -796.3689            0    -796.3689     13208.37 
     700 4.9933587e-06    -796.3689            0    -796.3689     13208.36 
     701 5.3787369e-06    -796.3689            0    -796.3689    13208.349 
     702 5.7753634e-06    -796.3689            0    -796.3689    13208.338 
     703 6.1827392e-06    -796.3689            0    -796.3689    13208.326 
     704 6.600036e-06    -796.3689            0    -796.3689    13208.314 
     705 7.0248193e-06    -796.3689            0    -796.3689    13208.301 
     706 7.4436909e-06    -796.3689            0    -796.3689    13208.289 
     707 7.7675105e-06   -796.36889            0   -796.36889    13208.275 
     708 7.3772991e-06   -796.36889            0   -796.36889    13208.263 
     709 3.9194466e-06   -796.36889            0   -796.36889    13208.252 
     710 5.0635594e-07   -796.36889            0   -796.36889     13208.25 
     711 6.9973328e-07   -796.36889            0   -796.36889    13208.246 
     712 8.3607006e-07   -796.36889            0   -796.36889    13208.242 
     713 9.8511535e-07   -796.36889            0   -796.36889    13208.237 
     714 1.1458571e-06   -796.36889            0   -796.36889    13208.233 
     715 1.318111e-06   -796.36889            0   -796.36889    13208.227 
     716 1.5016928e-06   -796.36889            0   -796.36889    13208.222 
     717 1.696405e-06   -796.36889            0   -796.36889    13208.216 
     718 1.9020381e-06   -796.36889            0   -796.36889    13208.209 
     719 2.1183697e-06   -796.36889            0   -796.36889    13208.202 
     720 2.3451655e-06   -796.36889            0   -796.36889    13208.195 
     721 2.5821792e-06   -796.36888            0   -796.36888    13208.188 
     722 2.8291529e-06   -796.36888            0   -796.36888     13208.18 
     723 3.0858172e-06   -796.36888            0   -796.36888    13208.171 
     724 3.3518921e-06   -796.36888            0   -796.36888    13208.163 
     725 3.6270861e-06   -796.36888            0   -796.36888    13208.154 
     726 3.9110981e-06   -796.36888            0   -796.36888    13208.144 
     727 4.2036148e-06   -796.36888            0   -796.36888    13208.135 
     728 4.5043116e-06   -796.36888            0   -796.36888    13208.124 
     729 4.8128316e-06   -796.36888            0   -796.36888    13208.114 
     730 5.128702e-06   -796.36887            0   -796.36887    13208.103 
     731 5.4506777e-06   -796.36887            0   -796.36887    13208.092 
     732 5.7721416e-06   -796.36887            0   -796.36887     13208.08 
     733 6.0435403e-06   -796.36887            0   -796.36887    13208.069 
     734 5.8718913e-06   -796.36887            0   -796.36887    13208.056 
     735 3.3307847e-06   -796.36887            0   -796.36887    13208.049 
     736 3.2931251e-07   -796.36887            0   -796.36887    13208.045 
     737 4.9245375e-07   -796.36887            0   -796.36887    13208.042 
     738 5.8980835e-07   -796.36887            0   -796.36887    13208.039 
     739 6.9712119e-07   -796.36887            0   -796.36887    13208.035 
     740 8.1303929e-07   -796.36887            0   -796.36887    13208.031 
     741 9.3742645e-07   -796.36887            0   -796.36887    13208.026 
     742 1.0701501e-06   -796.36887            0   -796.36887    13208.021 
     743 1.211069e-06   -796.36886            0   -796.36886    13208.016 
     744 1.3600329e-06   -796.36886            0   -796.36886     13208.01 
     745 1.5168821e-06   -796.36886            0   -796.36886    13208.005 
     746 1.6814485e-06   -796.36886            0   -796.36886    13207.998 
     747 1.8535548e-06   -796.36886            0   -796.36886    13207.992 
     748 2.0330155e-06   -796.36886            0   -796.36886    13207.985 
     749 2.2196367e-06   -796.36886            0   -796.36886    13207.978 
     750 2.4132163e-06   -796.36886            0   -796.36886     13207.97 
     751 2.6135444e-06   -796.36886            0   -796.36886    13207.963 
     752 2.8204032e-06   -796.36886            0   -796.36886    13207.955 
     753 3.0335665e-06   -796.36886            0   -796.36886    13207.946 
     754 3.2527963e-06   -796.36886            0   -796.36886    13207.937 
     755 3.4778232e-06   -796.36885            0   -796.36885    13207.928 
     756 3.7082219e-06   -796.36885            0   -796.36885    13207.919 
     757 3.942581e-06   -796.36885            0   -796.36885    13207.909 
     758 4.1722858e-06   -796.36885            0   -796.36885    13207.899 
     759 4.3316114e-06   -796.36885            0   -796.36885    13207.889 
     760 3.9274975e-06   -796.36885            0   -796.36885     13207.88 
     761 1.5031065e-06   -796.36885            0   -796.36885    13207.873 
     762 1.6169396e-07   -796.36885            0   -796.36885    13207.872 
     763 2.5914199e-07   -796.36885            0   -796.36885    13207.869 
     764 3.249566e-07   -796.36885            0   -796.36885    13207.867 
     765 3.9403169e-07   -796.36885            0   -796.36885    13207.864 
     766 4.6955789e-07   -796.36885            0   -796.36885    13207.861 
     767 5.5145153e-07   -796.36885            0   -796.36885    13207.857 
     768 6.3962716e-07   -796.36885            0   -796.36885    13207.853 
     769 7.3399232e-07   -796.36884            0   -796.36884    13207.849 
     770 8.3444758e-07   -796.36884            0   -796.36884    13207.845 
     771 9.408867e-07   -796.36884            0   -796.36884     13207.84 
     772 1.0531967e-06   -796.36884            0   -796.36884    13207.835 
     773 1.1712582e-06   -796.36884            0   -796.36884     13207.83 
     774 1.294945e-06   -796.36884            0   -796.36884    13207.824 
     775 1.4241249e-06   -796.36884            0   -796.36884    13207.819 
     776 1.5586594e-06   -796.36884            0   -796.36884    13207.813 
     777 1.6984041e-06   -796.36884            0   -796.36884    13207.806 
     778 1.8432086e-06   -796.36884            0   -796.36884      13207.8 
     779 1.9929169e-06   -796.36884            0   -796.36884    13207.793 
     780 2.1473675e-06   -796.36884            0   -796.36884    13207.785 
     781 2.3063935e-06   -796.36884            0   -796.36884    13207.778 
     782 2.4698229e-06   -796.36884            0   -796.36884     13207.77 
     783 2.6374787e-06   -796.36883            0   -796.36883    13207.762 
     784 2.8091792e-06   -796.36883            0   -796.36883    13207.754 
     785 2.9847372e-06   -796.36883            0   -796.36883    13207.745 
     786 3.1639583e-06   -796.36883            0   -796.36883    13207.736 
     787 3.3466029e-06   -796.36883            0   -796.36883    13207.727 
     788 3.5320818e-06   -796.36883            0   -796.36883    13207.718 
     789 3.7159509e-06   -796.36883            0   -796.36883    13207.708 
     790 3.8497981e-06   -796.36883            0   -796.36883    13207.699 
     791 3.4069137e-06   -796.36883            0   -796.36883    13207.689 
     792 7.7683395e-07   -796.36882            0   -796.36882    13207.685 
     793 4.4031294e-08   -796.36882            0   -796.36882    13207.684 
     794 7.6565052e-08   -796.36882            0   -796.36882    13207.683 
     795 1.1420636e-07   -796.36882            0   -796.36882    13207.681 
     796 1.5114665e-07   -796.36882            0   -796.36882     13207.68 
     797 1.9076215e-07   -796.36882            0   -796.36882    13207.678 
     798 2.3468573e-07   -796.36882            0   -796.36882    13207.675 
     799 2.8303238e-07   -796.36882            0   -796.36882    13207.673 
     800 3.3575515e-07   -796.36882            0   -796.36882     13207.67 
     801 3.9279967e-07   -796.36882            0   -796.36882    13207.667 
     802 4.5410673e-07   -796.36882            0   -796.36882    13207.664 
     803 5.1961239e-07   -796.36882            0   -796.36882     13207.66 
     804 5.8924804e-07   -796.36882            0   -796.36882    13207.656 
     805 6.6294046e-07   -796.36882            0   -796.36882    13207.652 
     806 7.4061191e-07   -796.36882            0   -796.36882    13207.648 
     807 8.2218023e-07   -796.36882            0   -796.36882    13207.644 
     808 9.0755889e-07   -796.36882            0   -796.36882    13207.639 
     809 9.9665716e-07   -796.36882            0   -796.36882    13207.634 
     810 1.0893801e-06   -796.36882            0   -796.36882    13207.629 
     811 1.1856287e-06   -796.36882            0   -796.36882    13207.624 
     812 1.2853002e-06   -796.36882            0   -796.36882    13207.618 
     813 1.3882878e-06   -796.36882            0   -796.36882    13207.612 
     814 1.494481e-06   -796.36881            0   -796.36881    13207.606 
     815 1.6037659e-06   -796.36881            0   -796.36881      13207.6 
     816 1.7160249e-06   -796.36881            0   -796.36881    13207.593 
     817 1.8311373e-06   -796.36881            0   -796.36881    13207.586 
     818 1.9489789e-06   -796.36881            0   -796.36881    13207.579 
     819 2.0694228e-06   -796.36881            0   -796.36881    13207.572 
     820 2.1923362e-06   -796.36881            0   -796.36881    13207.564 
     821 2.3175708e-06   -796.36881            0   -796.36881    13207.557 
     822 2.4448052e-06   -796.36881            0   -796.36881    13207.549 
     823 2.5718869e-06   -796.36881            0   -796.36881    13207.541 
     824 2.6737739e-06   -796.36881            0   -796.36881    13207.532 
     825 2.4520288e-06    -796.3688            0    -796.3688    13207.525 
     826 6.6470977e-07    -796.3688            0    -796.3688     13207.52 
     827 1.4545563e-08    -796.3688            0    -796.3688     13207.52 
     828 2.6767796e-08    -796.3688            0    -796.3688    13207.519 
     829 4.6009135e-08    -796.3688            0    -796.3688    13207.518 
     830 6.9074704e-08    -796.3688            0    -796.3688    13207.517 
     831 9.2769643e-08    -796.3688            0    -796.3688    13207.516 
     832 1.1839425e-07    -796.3688            0    -796.3688    13207.514 
     833 1.4690759e-07    -796.3688            0    -796.3688    13207.512 
     834 1.7841535e-07    -796.3688            0    -796.3688     13207.51 
     835 2.1288926e-07    -796.3688            0    -796.3688    13207.508 
     836 2.5029396e-07    -796.3688            0    -796.3688    13207.506 
     837 2.9059091e-07    -796.3688            0    -796.3688    13207.503 
     838 3.3373836e-07    -796.3688            0    -796.3688      13207.5 
     839 3.7969142e-07    -796.3688            0    -796.3688    13207.497 
     840 4.2840206e-07    -796.3688            0    -796.3688    13207.494 
     841 4.7981924e-07    -796.3688            0    -796.3688     13207.49 
     842 5.3388888e-07    -796.3688            0    -796.3688    13207.487 
     843 5.9055398e-07    -796.3688            0    -796.3688    13207.483 
     844 6.4975464e-07    -796.3688            0    -796.3688    13207.479 
     845 7.1142816e-07    -796.3688            0    -796.3688    13207.475 
     846 7.7550908e-07    -796.3688            0    -796.3688     13207.47 
     847 8.4192928e-07    -796.3688            0    -796.3688    13207.465 
     848 9.1061801e-07    -796.3688            0    -796.3688    13207.461 
     849 9.8150201e-07    -796.3688            0    -796.3688    13207.456 
     850 1.0545056e-06   -796.36879            0   -796.36879     13207.45 
     851 1.1295506e-06   -796.36879            0   -796.36879    13207.445 
     852 1.2065569e-06   -796.36879            0   -796.36879    13207.439 
     853 1.2854416e-06   -796.36879            0   -796.36879    13207.434 
     854 1.3661203e-06   -796.36879            0   -796.36879    13207.428 
     855 1.4485059e-06   -796.36879            0   -796.36879    13207.422 
     856 1.5325058e-06   -796.36879            0   -796.36879    13207.415 
     857 1.6179933e-06   -796.36879            0   -796.36879    13207.409 
     858 1.7044465e-06   -796.36879            0   -796.36879    13207.402 
     859 1.7865997e-06   -796.36879            0   -796.36879    13207.395 
     860 1.7967565e-06   -796.36879            0   -796.36879    13207.388 
     861 1.111814e-06   -796.36879            0   -796.36879    13207.383 
     862 3.6103907e-08   -796.36879            0   -796.36879    13207.382 
     863 7.3722644e-08   -796.36879            0   -796.36879    13207.381 
     864 9.7039258e-08   -796.36879            0   -796.36879    13207.379 
     865 1.1818709e-07   -796.36879            0   -796.36879    13207.377 
     866 1.4137771e-07   -796.36879            0   -796.36879    13207.376 
     867 1.665704e-07   -796.36878            0   -796.36878    13207.374 
     868 1.9373915e-07   -796.36878            0   -796.36878    13207.371 
     869 2.2285591e-07   -796.36878            0   -796.36878    13207.369 
     870 2.538905e-07   -796.36878            0   -796.36878    13207.367 
     871 2.8681063e-07   -796.36878            0   -796.36878    13207.364 
     872 3.215819e-07   -796.36878            0   -796.36878    13207.361 
     873 3.5816791e-07   -796.36878            0   -796.36878    13207.358 
     874 3.965302e-07   -796.36878            0   -796.36878    13207.355 
     875 4.3662839e-07   -796.36878            0   -796.36878    13207.351 
     876 4.7842014e-07   -796.36878            0   -796.36878    13207.348 
     877 5.2186126e-07   -796.36878            0   -796.36878    13207.344 
     878 5.6690572e-07   -796.36878            0   -796.36878     13207.34 
     879 6.1350571e-07   -796.36878            0   -796.36878    13207.336 
     880 6.6161168e-07   -796.36878            0   -796.36878    13207.332 
     881 7.1117242e-07   -796.36878            0   -796.36878    13207.328 
     882 7.6213486e-07   -796.36878            0   -796.36878    13207.323 
     883 8.1444394e-07   -796.36878            0   -796.36878    13207.319 
     884 8.6803702e-07   -796.36878            0   -796.36878    13207.314 
     885 9.2281156e-07   -796.36878            0   -796.36878    13207.309 
     886 9.7831162e-07   -796.36878            0   -796.36878    13207.304 
     887 1.0308471e-06   -796.36878            0   -796.36878    13207.299 
     888 1.0443614e-06   -796.36877            0   -796.36877    13207.293 
     889 7.4203761e-07   -796.36877            0   -796.36877    13207.289 
     890 7.6591552e-08   -796.36877            0   -796.36877    13207.288 
     891 8.0251924e-08   -796.36877            0   -796.36877    13207.286 
     892 9.6544203e-08   -796.36877            0   -796.36877    13207.285 
     893 1.1440107e-07   -796.36877            0   -796.36877    13207.283 
     894 1.3371476e-07   -796.36877            0   -796.36877    13207.281 
     895 1.5446329e-07   -796.36877            0   -796.36877    13207.279 
     896 1.7662495e-07   -796.36877            0   -796.36877    13207.277 
     897 2.0017677e-07   -796.36877            0   -796.36877    13207.275 
     898 2.2509419e-07   -796.36877            0   -796.36877    13207.272 
     899 2.513512e-07   -796.36877            0   -796.36877     13207.27 
     900 2.7892028e-07   -796.36877            0   -796.36877    13207.267 
     901 3.0777248e-07   -796.36877            0   -796.36877    13207.264 
     902 3.3787739e-07   -796.36877            0   -796.36877    13207.261 
     903 3.6920327e-07   -796.36877            0   -796.36877    13207.258 
     904 4.0171685e-07   -796.36877            0   -796.36877    13207.255 
     905 4.3538352e-07   -796.36877            0   -796.36877    13207.252 
     906 4.7016604e-07   -796.36877            0   -796.36877    13207.248 
     907 5.0602202e-07   -796.36877            0   -796.36877    13207.244 
     908 5.4288033e-07   -796.36877            0   -796.36877    13207.241 
     909 5.8051631e-07   -796.36877            0   -796.36877    13207.237 
     910 6.1763756e-07   -796.36877            0   -796.36877    13207.233 
     911 6.4520966e-07   -796.36877            0   -796.36877    13207.228 
     912 5.9932117e-07   -796.36877            0   -796.36877    13207.224 
     913 2.7159442e-07   -796.36877            0   -796.36877    13207.222 
     914 3.278131e-08   -796.36876            0   -796.36876    13207.221 
     915 5.0443238e-08   -796.36876            0   -796.36876     13207.22 
     916 6.1955441e-08   -796.36876            0   -796.36876    13207.218 
     917 7.4581383e-08   -796.36876            0   -796.36876    13207.217 
     918  8.83385e-08   -796.36876            0   -796.36876    13207.216 
     919 1.0321273e-07   -796.36876            0   -796.36876    13207.214 
     920 1.1918877e-07   -796.36876            0   -796.36876    13207.212 
     921 1.3625016e-07   -796.36876            0   -796.36876     13207.21 
     922 1.5437919e-07   -796.36876            0   -796.36876    13207.208 
     923  1.73557e-07   -796.36876            0   -796.36876    13207.206 
     924 1.9376359e-07   -796.36876            0   -796.36876    13207.204 
     925 2.1497779e-07   -796.36876            0   -796.36876    13207.202 
     926 2.3717735e-07   -796.36876            0   -796.36876    13207.199 
     927 2.6033891e-07   -796.36876            0   -796.36876    13207.197 
     928 2.8443805e-07   -796.36876            0   -796.36876    13207.194 
     929 3.0944933e-07   -796.36876            0   -796.36876    13207.191 
     930 3.3534627e-07   -796.36876            0   -796.36876    13207.188 
     931 3.6210144e-07   -796.36876            0   -796.36876    13207.185 
     932 3.8968643e-07   -796.36876            0   -796.36876    13207.182 
     933 4.1807189e-07   -796.36876            0   -796.36876    13207.178 
     934 4.4722744e-07   -796.36876            0   -796.36876    13207.175 
     935 4.7712103e-07   -796.36876            0   -796.36876    13207.171 
     936 5.0771265e-07   -796.36876            0   -796.36876    13207.167 
     937 5.3890418e-07   -796.36876            0   -796.36876    13207.164 
     938 5.700487e-07   -796.36876            0   -796.36876     13207.16 
     939 5.9494288e-07   -796.36876            0   -796.36876    13207.156 
     940 5.5197752e-07   -796.36876            0   -796.36876    13207.152 
     941 1.9222611e-07   -796.36876            0   -796.36876    13207.149 
     942 8.2964612e-09   -796.36876            0   -796.36876    13207.149 
     943 1.5132315e-08   -796.36876            0   -796.36876    13207.148 
     944 2.2899647e-08   -796.36876            0   -796.36876    13207.148 
     945 2.9988699e-08   -796.36876            0   -796.36876    13207.147 
     946 3.7560221e-08   -796.36876            0   -796.36876    13207.146 
     947 4.5946931e-08   -796.36875            0   -796.36875    13207.145 
     948 5.5154455e-08   -796.36875            0   -796.36875    13207.144 
     949 6.5173432e-08   -796.36875            0   -796.36875    13207.142 
     950 7.5993622e-08   -796.36875            0   -796.36875    13207.141 
     951 8.7603905e-08   -796.36875            0   -796.36875    13207.139 
     952 9.9992298e-08   -796.36875            0   -796.36875    13207.138 
     953 1.1314596e-07   -796.36875            0   -796.36875    13207.136 
     954 1.2705119e-07   -796.36875            0   -796.36875    13207.134 
     955 1.416935e-07   -796.36875            0   -796.36875    13207.132 
     956 1.5705755e-07   -796.36875            0   -796.36875     13207.13 
     957 1.7312723e-07   -796.36875            0   -796.36875    13207.128 
     958 1.8988562e-07   -796.36875            0   -796.36875    13207.126 
     959 2.0731507e-07   -796.36875            0   -796.36875    13207.124 
     960 2.2539718e-07   -796.36875            0   -796.36875    13207.121 
     961 2.4411282e-07   -796.36875            0   -796.36875    13207.119 
     962 2.6344215e-07   -796.36875            0   -796.36875    13207.116 
     963 2.8336467e-07   -796.36875            0   -796.36875    13207.113 
     964 3.0385922e-07   -796.36875            0   -796.36875     13207.11 
     965 3.2490396e-07   -796.36875            0   -796.36875    13207.107 
     966 3.464765e-07   -796.36875            0   -796.36875    13207.104 
     967 3.685537e-07   -796.36875            0   -796.36875    13207.101 
     968 3.9111119e-07   -796.36875            0   -796.36875    13207.098 
     969 4.1411712e-07   -796.36875            0   -796.36875    13207.094 
     970 4.3746397e-07   -796.36875            0   -796.36875    13207.091 
     971 4.6017563e-07   -796.36875            0   -796.36875    13207.087 
     972 4.7038183e-07   -796.36875            0   -796.36875    13207.084 
     973 3.4766136e-07   -796.36875            0   -796.36875     13207.08 
     974 2.6272484e-08   -796.36875            0   -796.36875     13207.08 
     975 3.0856234e-08   -796.36875            0   -796.36875    13207.079 
     976 3.7190345e-08   -796.36875            0   -796.36875    13207.078 
     977 4.4099946e-08   -796.36875            0   -796.36875    13207.077 
     978 5.1574768e-08   -796.36875            0   -796.36875    13207.076 
     979 5.9607056e-08   -796.36875            0   -796.36875    13207.074 
     980 6.8188509e-08   -796.36875            0   -796.36875    13207.073 
     981 7.7310245e-08   -796.36875            0   -796.36875    13207.072 
     982 8.6962777e-08   -796.36875            0   -796.36875     13207.07 
     983 9.7136044e-08   -796.36874            0   -796.36874    13207.068 
     984 1.078194e-07   -796.36874            0   -796.36874    13207.067 
     985 1.1900165e-07   -796.36874            0   -796.36874    13207.065 
     986 1.3067103e-07   -796.36874            0   -796.36874    13207.063 
     987 1.4281526e-07   -796.36874            0   -796.36874    13207.061 
     988 1.5542149e-07   -796.36874            0   -796.36874    13207.059 
     989 1.6847641e-07   -796.36874            0   -796.36874    13207.057 
     990 1.8196601e-07   -796.36874            0   -796.36874    13207.055 
     991 1.9587554e-07   -796.36874            0   -796.36874    13207.052 
     992 2.1018689e-07   -796.36874            0   -796.36874     13207.05 
     993 2.2486653e-07   -796.36874            0   -796.36874    13207.047 
     994 2.3976714e-07   -796.36874            0   -796.36874    13207.045 
     995 2.5388517e-07   -796.36874            0   -796.36874    13207.042 
     996 2.5910051e-07   -796.36874            0   -796.36874    13207.039 
     997 2.0067866e-07   -796.36874            0   -796.36874    13207.037 
     998 3.8116396e-08   -796.36874            0   -796.36874    13207.036 
     999 1.7380331e-08   -796.36874            0   -796.36874    13207.035 
    1000 2.1841478e-08   -796.36874            0   -796.36874    13207.035 
    1001 2.6500398e-08   -796.36874            0   -796.36874    13207.034 
    1002 3.1597395e-08   -796.36874            0   -796.36874    13207.033 
    1003 3.7125817e-08   -796.36874            0   -796.36874    13207.032 
    1004 4.3079988e-08   -796.36874            0   -796.36874    13207.031 
    1005 4.9453772e-08   -796.36874            0   -796.36874     13207.03 
    1006 5.6240577e-08   -796.36874            0   -796.36874    13207.029 
    1007 6.3433355e-08   -796.36874            0   -796.36874    13207.027 
    1008 7.1024612e-08   -796.36874            0   -796.36874    13207.026 
    1009 7.9006414e-08   -796.36874            0   -796.36874    13207.024 
    1010 8.7370398e-08   -796.36874            0   -796.36874    13207.023 
    1011 9.6107776e-08   -796.36874            0   -796.36874    13207.021 
    1012 1.0520935e-07   -796.36874            0   -796.36874     13207.02 
    1013 1.1466552e-07   -796.36874            0   -796.36874    13207.018 
    1014 1.2446629e-07   -796.36874            0   -796.36874    13207.016 
    1015 1.3460127e-07   -796.36874            0   -796.36874    13207.014 
    1016 1.450597e-07   -796.36874            0   -796.36874    13207.012 
    1017 1.5583023e-07   -796.36874            0   -796.36874     13207.01 
    1018 1.6690044e-07   -796.36874            0   -796.36874    13207.008 
    1019 1.7825082e-07   -796.36874            0   -796.36874    13207.006 
    1020 1.8981538e-07   -796.36874            0   -796.36874    13207.003 
    1021 2.0112676e-07   -796.36874            0   -796.36874    13207.001 
    1022 2.0813427e-07   -796.36874            0   -796.36874    13206.998 
    1023 1.7776125e-07   -796.36874            0   -796.36874    13206.996 
[...]
    2065 5.7082297e-06   -796.41117            0   -796.41117    13213.493 
    2066 6.1022379e-06   -796.41117            0   -796.41117    13213.484 
    2067 6.5025584e-06   -796.41117            0   -796.41117    13213.474 
    2068 6.908279e-06   -796.41116            0   -796.41116    13213.465 
    2069 7.3184608e-06   -796.41116            0   -796.41116    13213.455 
    2070 7.7321191e-06   -796.41116            0   -796.41116    13213.445 
    2071 8.1479452e-06   -796.41116            0   -796.41116    13213.434 
    2072 8.5615427e-06   -796.41116            0   -796.41116    13213.424 
    2073 8.9317379e-06   -796.41116            0   -796.41116    13213.412 
    2074 8.7650363e-06   -796.41116            0   -796.41116    13213.403 
    2075 4.4015829e-06   -796.41116            0   -796.41116    13213.392 
    2076 8.4808951e-08   -796.41116            0   -796.41116    13213.392 
    2077 1.5873551e-07   -796.41116            0   -796.41116    13213.392 
    2078 2.6373728e-07   -796.41116            0   -796.41116     13213.39 
    2079 3.5579946e-07   -796.41115            0   -796.41115    13213.389 
    2080 4.4594178e-07   -796.41115            0   -796.41115    13213.386 
    2081 5.4490978e-07   -796.41115            0   -796.41115    13213.384 
    2082 6.5319839e-07   -796.41115            0   -796.41115    13213.381 
    2083 7.7057884e-07   -796.41115            0   -796.41115    13213.378 
    2084 8.9680266e-07   -796.41115            0   -796.41115    13213.375 
    2085 1.0316007e-06   -796.41115            0   -796.41115    13213.371 
    2086 1.1746833e-06   -796.41115            0   -796.41115    13213.368 
    2087 1.3257412e-06   -796.41115            0   -796.41115    13213.364 
    2088 1.4844456e-06   -796.41115            0   -796.41115    13213.359 
    2089 1.6504488e-06   -796.41115            0   -796.41115    13213.355 
    2090 1.8233848e-06   -796.41115            0   -796.41115     13213.35 
    2091 2.0028699e-06   -796.41115            0   -796.41115    13213.345 
    2092 2.1885034e-06   -796.41115            0   -796.41115     13213.34 
    2093 2.379868e-06   -796.41115            0   -796.41115    13213.334 
    2094 2.5765306e-06   -796.41115            0   -796.41115    13213.329 
    2095 2.778043e-06   -796.41115            0   -796.41115    13213.323 
    2096 2.9839425e-06   -796.41114            0   -796.41114    13213.317 
    2097 3.1937528e-06   -796.41114            0   -796.41114     13213.31 
    2098 3.4069846e-06   -796.41114            0   -796.41114    13213.304 
    2099 3.6231365e-06   -796.41114            0   -796.41114    13213.297 
    2100 3.8416953e-06   -796.41114            0   -796.41114     13213.29 
    2101 4.0621367e-06   -796.41114            0   -796.41114    13213.283 
    2102 4.283914e-06   -796.41114            0   -796.41114    13213.276 
    2103 4.5063722e-06   -796.41114            0   -796.41114    13213.268 
    2104 4.7275749e-06   -796.41114            0   -796.41114    13213.261 
    2105 4.9295316e-06   -796.41114            0   -796.41114    13213.253 
    2106 4.8727907e-06   -796.41113            0   -796.41113    13213.244 
    2107 2.516116e-06   -796.41113            0   -796.41113    13213.242 
    2108 3.2293122e-08   -796.41113            0   -796.41113    13213.241 
    2109 5.9725313e-08   -796.41113            0   -796.41113    13213.239 
    2110 1.0550835e-07   -796.41113            0   -796.41113    13213.238 
    2111 1.5398823e-07   -796.41113            0   -796.41113    13213.236 
    2112 1.9824602e-07   -796.41113            0   -796.41113    13213.235 
    2113 2.4586982e-07   -796.41113            0   -796.41113    13213.233 
    2114 2.982925e-07   -796.41113            0   -796.41113    13213.231 
    2115 3.5544049e-07   -796.41113            0   -796.41113    13213.229 
    2116 4.1718909e-07   -796.41113            0   -796.41113    13213.227 
    2117 4.8340261e-07   -796.41113            0   -796.41113    13213.225 
    2118 5.539345e-07   -796.41113            0   -796.41113    13213.223 
    2119 6.2862756e-07   -796.41113            0   -796.41113     13213.22 
    2120 7.0731426e-07   -796.41113            0   -796.41113    13213.217 
    2121 7.8981699e-07   -796.41113            0   -796.41113    13213.214 
    2122 8.7594837e-07   -796.41113            0   -796.41113    13213.211 
    2123 9.6551156e-07   -796.41113            0   -796.41113    13213.208 
    2124 1.0583006e-06   -796.41113            0   -796.41113    13213.204 
    2125 1.1541008e-06   -796.41113            0   -796.41113      13213.2 
    2126 1.2526891e-06   -796.41113            0   -796.41113    13213.197 
    2127 1.3538344e-06   -796.41113            0   -796.41113    13213.193 
    2128 1.4572978e-06   -796.41113            0   -796.41113    13213.189 
    2129 1.5628334e-06   -796.41113            0   -796.41113    13213.184 
    2130 1.6701885e-06   -796.41113            0   -796.41113     13213.18 
    2131 1.7791037e-06   -796.41112            0   -796.41112    13213.175 
    2132 1.8893139e-06   -796.41112            0   -796.41112    13213.171 
    2133 2.0005473e-06   -796.41112            0   -796.41112    13213.166 
    2134 2.1125242e-06   -796.41112            0   -796.41112    13213.161 
    2135 2.2249076e-06   -796.41112            0   -796.41112    13213.156 
    2136 2.3368461e-06   -796.41112            0   -796.41112    13213.151 
    2137 2.4408537e-06   -796.41112            0   -796.41112    13213.145 
    2138 2.4417058e-06   -796.41112            0   -796.41112     13213.14 
    2139 1.4496478e-06   -796.41112            0   -796.41112    13213.135 
    2140 3.4023953e-08   -796.41112            0   -796.41112    13213.135 
    2141 6.7886115e-08   -796.41112            0   -796.41112    13213.135 
    2142 1.0097745e-07   -796.41112            0   -796.41112    13213.134 
    2143 1.2592389e-07   -796.41112            0   -796.41112    13213.133 
    2144 1.5286971e-07   -796.41112            0   -796.41112    13213.131 
    2145 1.822531e-07   -796.41112            0   -796.41112     13213.13 
    2146 2.1400423e-07   -796.41112            0   -796.41112    13213.128 
    2147 2.4805137e-07   -796.41112            0   -796.41112    13213.127 
    2148 2.8431703e-07   -796.41112            0   -796.41112    13213.125 
    2149 3.2271811e-07   -796.41112            0   -796.41112    13213.123 
    2150 3.6316607e-07   -796.41112            0   -796.41112    13213.121 
    2151 4.0556707e-07   -796.41112            0   -796.41112    13213.119 
    2152 4.4982214e-07   -796.41112            0   -796.41112    13213.117 
    2153 4.9582737e-07   -796.41112            0   -796.41112    13213.115 
    2154 5.4347406e-07   -796.41111            0   -796.41111    13213.112 
    2155 5.9264898e-07   -796.41111            0   -796.41111     13213.11 
    2156 6.4323451e-07   -796.41111            0   -796.41111    13213.107 
    2157 6.9510887e-07   -796.41111            0   -796.41111    13213.104 
    2158 7.4814634e-07   -796.41111            0   -796.41111    13213.102 
    2159 8.0221752e-07   -796.41111            0   -796.41111    13213.099 
    2160 8.5718935e-07   -796.41111            0   -796.41111    13213.096 
    2161 9.1292564e-07   -796.41111            0   -796.41111    13213.092 
    2162 9.6928532e-07   -796.41111            0   -796.41111    13213.089 
    2163 1.0261167e-06   -796.41111            0   -796.41111    13213.086 
    2164 1.0831733e-06   -796.41111            0   -796.41111    13213.082 
    2165 1.1393264e-06   -796.41111            0   -796.41111    13213.079 
    2166 1.1832286e-06   -796.41111            0   -796.41111    13213.075 
    2167 1.0890452e-06   -796.41111            0   -796.41111    13213.072 
    2168 3.2318278e-07   -796.41111            0   -796.41111     13213.07 
    2169 7.6453118e-09   -796.41111            0   -796.41111     13213.07 
    2170 1.3977405e-08   -796.41111            0   -796.41111    13213.069 
    2171 2.3666484e-08   -796.41111            0   -796.41111    13213.069 
    2172 3.4619847e-08   -796.41111            0   -796.41111    13213.069 
    2173 4.5699298e-08   -796.41111            0   -796.41111    13213.068 
    2174 5.7753262e-08   -796.41111            0   -796.41111    13213.067 
    2175 7.1112095e-08   -796.41111            0   -796.41111    13213.066 
    2176 8.5775366e-08   -796.41111            0   -796.41111    13213.065 
    2177 1.0170978e-07   -796.41111            0   -796.41111    13213.064 
    2178 1.1887868e-07   -796.41111            0   -796.41111    13213.063 
    2179 1.372423e-07   -796.41111            0   -796.41111    13213.062 
    2180 1.5675778e-07   -796.41111            0   -796.41111    13213.061 
    2181 1.7737929e-07   -796.41111            0   -796.41111     13213.06 
    2182 1.9905812e-07   -796.41111            0   -796.41111    13213.058 
    2183 2.2174272e-07   -796.41111            0   -796.41111    13213.057 
    2184 2.4537886e-07   -796.41111            0   -796.41111    13213.055 
    2185 2.6990967e-07   -796.41111            0   -796.41111    13213.054 
    2186 2.952758e-07    -796.4111            0    -796.4111    13213.052 
    2187 3.2141551e-07    -796.4111            0    -796.4111     13213.05 
    2188 3.4826476e-07    -796.4111            0    -796.4111    13213.048 
    2189 3.7575737e-07    -796.4111            0    -796.4111    13213.046 
    2190 4.0382511e-07    -796.4111            0    -796.4111    13213.044 
    2191 4.3239784e-07    -796.4111            0    -796.4111    13213.042 
    2192 4.6140363e-07    -796.4111            0    -796.4111     13213.04 
    2193 4.9076889e-07    -796.4111            0    -796.4111    13213.038 
    2194 5.2041848e-07    -796.4111            0    -796.4111    13213.035 
    2195 5.5027571e-07    -796.4111            0    -796.4111    13213.033 
    2196 5.8026075e-07    -796.4111            0    -796.4111    13213.031 
    2197 6.1027517e-07    -796.4111            0    -796.4111    13213.028 
    2198 6.3999238e-07    -796.4111            0    -796.4111    13213.025 
    2199 6.660552e-07    -796.4111            0    -796.4111    13213.023 
    2200 6.4196487e-07    -796.4111            0    -796.4111     13213.02 
    2201 2.4376361e-07    -796.4111            0    -796.4111    13213.019 
    2202 1.0114631e-09    -796.4111            0    -796.4111    13213.019 
    2203 2.0021568e-09    -796.4111            0    -796.4111    13213.019 
    2204 3.758375e-09    -796.4111            0    -796.4111    13213.019 
    2205 6.8602379e-09    -796.4111            0    -796.4111    13213.018 
    2206 1.1524488e-08    -796.4111            0    -796.4111    13213.018 
    2207 1.675098e-08    -796.4111            0    -796.4111    13213.018 
    2208 2.2084172e-08    -796.4111            0    -796.4111    13213.017 
    2209 2.7910559e-08    -796.4111            0    -796.4111    13213.017 
    2210 3.4369355e-08    -796.4111            0    -796.4111    13213.016 
    2211 4.1458091e-08    -796.4111            0    -796.4111    13213.016 
    2212 4.9160386e-08    -796.4111            0    -796.4111    13213.015 
    2213 5.7458137e-08    -796.4111            0    -796.4111    13213.014 
    2214 6.6331698e-08    -796.4111            0    -796.4111    13213.013 
    2215 7.5759913e-08    -796.4111            0    -796.4111    13213.013 
    2216 8.5720164e-08    -796.4111            0    -796.4111    13213.012 
    2217 9.6188404e-08    -796.4111            0    -796.4111    13213.011 
    2218 1.0713922e-07    -796.4111            0    -796.4111     13213.01 
    2219 1.1854585e-07    -796.4111            0    -796.4111    13213.009 
    2220 1.3038029e-07    -796.4111            0    -796.4111    13213.007 
    2221 1.426133e-07    -796.4111            0    -796.4111    13213.006 
    2222 1.5521446e-07    -796.4111            0    -796.4111    13213.005 
    2223 1.6815227e-07    -796.4111            0    -796.4111    13213.004 
    2224 1.8139418e-07    -796.4111            0    -796.4111    13213.003 
    2225 1.9490664e-07    -796.4111            0    -796.4111    13213.001 
    2226 2.086552e-07    -796.4111            0    -796.4111        13213 
    2227 2.2260453e-07    -796.4111            0    -796.4111    13212.998 
    2228 2.3671856e-07    -796.4111            0    -796.4111    13212.997 
    2229 2.509604e-07    -796.4111            0    -796.4111    13212.995 
    2230 2.6529253e-07   -796.41109            0   -796.41109    13212.994 
    2231 2.7967554e-07   -796.41109            0   -796.41109    13212.992 
    2232 2.9405871e-07   -796.41109            0   -796.41109     13212.99 
    2233 3.0824642e-07   -796.41109            0   -796.41109    13212.989 
    2234 3.2005237e-07   -796.41109            0   -796.41109    13212.987 
    2235 2.9909833e-07   -796.41109            0   -796.41109    13212.985 
    2236 8.2151021e-08   -796.41109            0   -796.41109    13212.984 
    2237 3.2746133e-10   -796.41109            0   -796.41109    13212.984 
    2238 7.1334884e-10   -796.41109            0   -796.41109    13212.984 
    2239 1.3864907e-09   -796.41109            0   -796.41109    13212.984 
    2240 2.5615879e-09   -796.41109            0   -796.41109    13212.984 
    2241 4.4117791e-09   -796.41109            0   -796.41109    13212.984 
    2242 6.6988721e-09   -796.41109            0   -796.41109    13212.984 
    2243 9.1082421e-09   -796.41109            0   -796.41109    13212.983 
    2244 1.1720551e-08   -796.41109            0   -796.41109    13212.983 
    2245 1.4626593e-08   -796.41109            0   -796.41109    13212.983 
    2246 1.7835592e-08   -796.41109            0   -796.41109    13212.982 
    2247 2.1340516e-08   -796.41109            0   -796.41109    13212.982 
    2248 2.5133009e-08   -796.41109            0   -796.41109    13212.981 
    2249 2.9203965e-08   -796.41109            0   -796.41109    13212.981 
    2250 3.3543533e-08   -796.41109            0   -796.41109     13212.98 
    2251 3.8141146e-08   -796.41109            0   -796.41109     13212.98 
    2252 4.2985539e-08   -796.41109            0   -796.41109    13212.979 
    2253 4.8064773e-08   -796.41109            0   -796.41109    13212.979 
    2254 5.3366256e-08   -796.41109            0   -796.41109    13212.978 
    2255 5.8876771e-08   -796.41109            0   -796.41109    13212.977 
    2256 6.4582504e-08   -796.41109            0   -796.41109    13212.976 
    2257 7.0469066e-08   -796.41109            0   -796.41109    13212.976 
    2258 7.6521527e-08   -796.41109            0   -796.41109    13212.975 
    2259 8.2724445e-08   -796.41109            0   -796.41109    13212.974 
    2260 8.9061892e-08   -796.41109            0   -796.41109    13212.973 
    2261 9.5517491e-08   -796.41109            0   -796.41109    13212.972 
    2262 1.0207444e-07   -796.41109            0   -796.41109    13212.971 
    2263 1.0871556e-07   -796.41109            0   -796.41109     13212.97 
    2264 1.1542331e-07   -796.41109            0   -796.41109    13212.969 
    2265 1.2217981e-07   -796.41109            0   -796.41109    13212.968 
    2266 1.2896688e-07   -796.41109            0   -796.41109    13212.967 
    2267 1.3576541e-07   -796.41109            0   -796.41109    13212.966 
    2268 1.4254966e-07   -796.41109            0   -796.41109    13212.965 
    2269 1.4920116e-07   -796.41109            0   -796.41109    13212.964 
    2270 1.5424255e-07   -796.41109            0   -796.41109    13212.962 
    2271 1.3634647e-07   -796.41109            0   -796.41109    13212.961 
    2272 2.1216819e-08   -796.41109            0   -796.41109    13212.961 
    2273 5.9576236e-10   -796.41109            0   -796.41109    13212.961 
    2274 1.1061169e-09   -796.41109            0   -796.41109    13212.961 
    2275 1.8895672e-09   -796.41109            0   -796.41109    13212.961 
    2276 2.8685141e-09   -796.41109            0   -796.41109    13212.961 
    2277 3.9342118e-09   -796.41109            0   -796.41109     13212.96 
    2278 5.1038927e-09   -796.41109            0   -796.41109     13212.96 
    2279 6.4094044e-09   -796.41109            0   -796.41109     13212.96 
    2280 7.8550147e-09   -796.41109            0   -796.41109     13212.96 
    2281 9.4376445e-09   -796.41109            0   -796.41109    13212.959 
    2282 1.1153471e-08   -796.41109            0   -796.41109    13212.959 
    2283 1.2998313e-08   -796.41109            0   -796.41109    13212.959 
    2284 1.4967645e-08   -796.41109            0   -796.41109    13212.958 
    2285 1.7056603e-08   -796.41109            0   -796.41109    13212.958 
    2286 1.9259993e-08   -796.41109            0   -796.41109    13212.958 
    2287 2.1572308e-08   -796.41109            0   -796.41109    13212.957 
    2288 2.3987736e-08   -796.41109            0   -796.41109    13212.957 
    2289 2.6500169e-08   -796.41109            0   -796.41109    13212.956 
    2290 2.910322e-08   -796.41109            0   -796.41109    13212.956 
    2291 3.1790236e-08   -796.41109            0   -796.41109    13212.955 
    2292 3.4554308e-08   -796.41109            0   -796.41109    13212.955 
    2293 3.7388289e-08   -796.41109            0   -796.41109    13212.954 
    2294 4.0284807e-08   -796.41109            0   -796.41109    13212.954 
    2295 4.3236278e-08   -796.41109            0   -796.41109    13212.953 
    2296 4.6234926e-08   -796.41109            0   -796.41109    13212.952 
    2297 4.9272795e-08   -796.41109            0   -796.41109    13212.952 
    2298 5.234176e-08   -796.41109            0   -796.41109    13212.951 
    2299 5.5433563e-08   -796.41109            0   -796.41109     13212.95 
    2300 5.8539778e-08   -796.41109            0   -796.41109     13212.95 
    2301 6.1651943e-08   -796.41109            0   -796.41109    13212.949 
    2302 6.4761267e-08   -796.41109            0   -796.41109    13212.948 
    2303 6.7859104e-08   -796.41109            0   -796.41109    13212.948 
    2304 7.0930897e-08   -796.41109            0   -796.41109    13212.947 
    2305 7.3891486e-08   -796.41109            0   -796.41109    13212.946 
    2306 7.5278622e-08   -796.41109            0   -796.41109    13212.946 
    2307 5.2281634e-08   -796.41109            0   -796.41109    13212.944 
    2308 7.875416e-11   -796.41109            0   -796.41109    13212.944 
Loop time of 421.229 on 16 procs for 842 steps with 127 atoms

96.0% CPU use with 16 MPI tasks x no OpenMP threads

Minimization stats:
  Stopping criterion = energy tolerance
  Energy initial, next-to-last, final = 
        -796.368704171     -796.411085552     -796.411085551
  Force two-norm initial, final = 5.10129e-06 4.08991e-05
  Force max component initial, final = 3.27026e-06 1.76464e-05
  Final line search alpha, max atom move = 0 0
  Iterations, force evaluations = 842 842

MPI task timing breakdown:
Section |  min time  |  avg time  |  max time  |%varavg| %total
---------------------------------------------------------------
Pair    | 236.6      | 265.48     | 286.57     |  67.6 | 63.03
Neigh   | 0          | 0          | 0          |   0.0 |  0.00
Comm    | 57.593     | 78.664     | 107.53     | 124.2 | 18.67
Output  | 1.0922     | 1.5021     | 1.6764     |  15.2 |  0.36
Modify  | 1.2413     | 1.259      | 1.2803     |   1.6 |  0.30
Other   |            | 74.32      |            |       | 17.64

Nlocal:    7.9375 ave 8 max 7 min
Histogram: 1 0 0 0 0 0 0 0 0 15
Nghost:    818.062 ave 821 max 816 min
Histogram: 8 0 0 0 0 0 0 0 7 1
Neighs:    0 ave 0 max 0 min
Histogram: 16 0 0 0 0 0 0 0 0 0
FullNghs:  1601.75 ave 1631 max 1418 min
Histogram: 1 0 0 0 0 0 0 0 5 10

Total # of neighbors = 25628
Ave neighs/atom = 201.795
Neighbor list builds = 0
Dangerous builds = 0
Total wall time: 0:19:23
