LAMMPS (12 Dec 2018)
Processor partition = 7
Reading data file ...
  orthogonal box = (0 0 0) to (10.0025 12.3537 10.615)
  2 by 4 by 2 MPI processor grid
  reading atoms ...
  127 atoms
Reading potential file lammps-force.nnp with DATE: 20201105
Neighbor list info ...
  update every 1 steps, delay 0 steps, check yes
  max neighbors/atom: 2000, page size: 100000
  master list distance cutoff = 8
  ghost atom cutoff = 8
  binsize = 4, bins = 3 4 3
  1 neighbor lists, perpetual/occasional/extra = 1 0 0
  (1) pair nnp3v, perpetual
      attributes: full, newton on
      pair build: full/bin/atomonly
      stencil: full/bin/3d
      bin: standard
Setting up quickmin style minimization ...
  Unit style    : metal
  Current step  : 0
Per MPI rank memory allocation (min/avg/max) = 2.736 | 2.736 | 2.736 Mbytes
Step Temp E_pair E_mol TotEng Press 
       0            0   -796.68047            0   -796.68047     13401.66 
       6  0.092325754   -796.68154            0   -796.68004    13408.421 
Loop time of 3.35042 on 16 procs for 6 steps with 127 atoms

99.1% CPU use with 16 MPI tasks x no OpenMP threads

Minimization stats:
  Stopping criterion = energy tolerance
  Energy initial, next-to-last, final = 
        -796.680469343     -796.681189813     -796.681544239
  Force two-norm initial, final = 0.292034 0.283352
  Force max component initial, final = 0.0445202 0.0435203
  Final line search alpha, max atom move = 0 0
  Iterations, force evaluations = 6 6

MPI task timing breakdown:
Section |  min time  |  avg time  |  max time  |%varavg| %total
---------------------------------------------------------------
Pair    | 2.0203     | 2.3613     | 3.3494     |  17.4 | 70.48
Neigh   | 0          | 0          | 0          |   0.0 |  0.00
Comm    | 0.00057197 | 0.98864    | 1.3296     |  27.0 | 29.51
Output  | 0          | 0          | 0          |   0.0 |  0.00
Modify  | 0          | 0          | 0          |   0.0 |  0.00
Other   |            | 0.0004731  |            |       |  0.01

Nlocal:    7.9375 ave 8 max 7 min
Histogram: 1 0 0 0 0 0 0 0 0 15
Nghost:    819.812 ave 824 max 816 min
Histogram: 4 0 0 0 0 8 0 1 1 2
Neighs:    0 ave 0 max 0 min
Histogram: 16 0 0 0 0 0 0 0 0 0
FullNghs:  1602 ave 1623 max 1420 min
Histogram: 1 0 0 0 0 0 0 0 1 14

Total # of neighbors = 25632
Ave neighs/atom = 201.827
Neighbor list builds = 0
Dangerous builds = 0
Setting up quickmin style minimization ...
  Unit style    : metal
  Current step  : 0
Per MPI rank memory allocation (min/avg/max) = 4.736 | 4.737 | 4.737 Mbytes
Step Temp E_pair E_mol TotEng Press 
       0            0   -796.43492            0   -796.43492    14182.189 
       1   0.41745358   -796.43492            0   -796.42812    14187.726 
       2     3.226651   -796.45719            0   -796.40464     14146.88 
       3    9.4180516   -796.50041            0   -796.34702    14078.852 
       4    20.144913   -796.55991            0   -796.23181    14023.513 
       5    33.587586   -796.62497            0   -796.07793     14015.77 
       6    43.374323   -796.68564            0   -795.97921    14035.056 
       7    54.679303   -796.74198            0   -795.85143    14143.973 
       8    66.839649   -796.79348            0   -795.70487    14289.853 
       9    76.813337   -796.83888            0   -795.58784    14428.116 
      10    85.804992   -796.87765            0   -795.48016    14574.701 
      11    64.811665   -796.90319            0   -795.84762    14389.567 
      12   0.73089071   -796.90556            0   -796.89366    13532.236 
      13    1.0947224   -796.90841            0   -796.89058    13532.977 
      14    1.6472904    -796.9119            0   -796.88507    13542.674 
      15     2.059634   -796.91578            0   -796.88224     13556.84 
      16    2.4284263    -796.9199            0   -796.88034    13573.249 
      17    2.8245634    -796.9242            0    -796.8782     13591.32 
      18    3.2329678   -796.92865            0   -796.87599    13610.617 
      19     3.646352   -796.93319            0    -796.8738    13630.988 
      20    4.0588505   -796.93779            0   -796.87169    13652.275 
      21    4.4649743    -796.9424            0   -796.86968     13674.32 
      22    4.8595753   -796.94699            0   -796.86784    13696.935 
      23    5.2379988   -796.95152            0   -796.86621    13719.894 
      24    5.5962575   -796.95596            0   -796.86481     13742.98 
      25    5.9310888   -796.96028            0   -796.86368    13765.986 
      26    6.2400833   -796.96447            0   -796.86284    13788.726 
      27    6.5216923   -796.96851            0   -796.86229    13810.982 
      28    6.7749941   -796.97238            0   -796.86204    13832.609 
      29     6.999673   -796.97607            0   -796.86207    13853.432 
      30    7.1955432   -796.97959            0   -796.86239    13873.346 
      31    7.3632442   -796.98291            0   -796.86298    13892.237 
      32     7.501529   -796.98604            0   -796.86386    13909.951 
      33    7.6034473   -796.98898            0   -796.86514    13926.589 
      34    7.4940396   -796.99168            0   -796.86963     13938.55 
      35    4.7916731   -796.99365            0   -796.91561     13915.86 
      36  0.033151478   -796.99379            0   -796.99325    13852.713 
      37  0.057488427   -796.99398            0   -796.99305    13853.295 
      38  0.098647668   -796.99424            0   -796.99263    13854.637 
      39   0.13983071   -796.99455            0   -796.99227    13856.558 
      40   0.17078208   -796.99489            0    -796.9921    13858.684 
      41   0.20173192   -796.99525            0   -796.99197    13860.998 
      42   0.23460188   -796.99565            0   -796.99183    13863.478 
      43   0.26930229   -796.99606            0   -796.99168    13866.111 
      44   0.30565784   -796.99651            0   -796.99153    13868.888 
      45   0.34348033   -796.99697            0   -796.99137      13871.8 
      46   0.38257303   -796.99745            0   -796.99121    13874.835 
      47   0.42273346   -796.99794            0   -796.99106    13877.982 
      48   0.46375344   -796.99845            0    -796.9909    13881.228 
      49   0.50542094   -796.99898            0   -796.99074    13884.563 
      50   0.54752092   -796.99951            0   -796.99059    13887.974 
      51   0.58983735   -797.00005            0   -796.99045    13891.449 
      52   0.63215318    -797.0006            0   -796.99031    13894.975 
      53   0.67425185   -797.00116            0   -796.99018    13898.541 
      54   0.71591957   -797.00172            0   -796.99006    13902.134 
      55   0.75694698   -797.00228            0   -796.98995    13905.743 
      56   0.79712646   -797.00283            0   -796.98985    13909.356 
      57   0.83625601   -797.00339            0   -796.98977    13912.962 
      58   0.87414251   -797.00394            0    -796.9897    13916.549 
      59   0.91060413   -797.00449            0   -796.98966    13920.097 
      60   0.94546981   -797.00502            0   -796.98963    13923.602 
      61   0.97856596   -797.00555            0   -796.98962    13927.058 
      62    1.0097413   -797.00607            0   -796.98963    13930.463 
      63    1.0388302   -797.00658            0   -796.98966    13933.802 
      64    1.0657576   -797.00707            0   -796.98972    13937.065 
      65    1.0902292   -797.00755            0    -796.9898    13940.268 
      66    1.1107271   -797.00802            0   -796.98993    13943.283 
      67    1.1040946   -797.00846            0   -796.99048    13946.166 
      68   0.78364008   -797.00881            0   -796.99605    13943.245 
      69  0.029388459   -797.00887            0    -797.0084    13934.028 
      70  0.046205097   -797.00895            0    -797.0082    13934.956 
      71   0.05113397   -797.00904            0   -797.00821    13935.545 
      72  0.058479147   -797.00913            0   -797.00818    13936.206 
      73  0.066193096   -797.00923            0   -797.00815    13936.904 
      74  0.074255304   -797.00933            0   -797.00812    13937.638 
      75  0.082635858   -797.00943            0   -797.00809    13938.408 
      76   0.09130411   -797.00954            0   -797.00805     13939.21 
      77   0.10022817   -797.00965            0   -797.00802    13940.045 
      78   0.10937558   -797.00977            0   -797.00799    13940.909 
      79   0.11871317   -797.00989            0   -797.00796      13941.8 
      80   0.12820753   -797.01002            0   -797.00793    13942.717 
      81   0.13782491   -797.01014            0    -797.0079    13943.657 
      82   0.14753166   -797.01027            0   -797.00787    13944.617 
      83   0.15729428    -797.0104            0   -797.00784    13945.595 
      84   0.16707946   -797.01053            0   -797.00781    13946.589 
      85    0.1768543   -797.01067            0   -797.00779    13947.597 
      86   0.18658661    -797.0108            0   -797.00776    13948.617 
      87   0.19624489   -797.01094            0   -797.00774    13949.646 
      88   0.20579889   -797.01107            0   -797.00772    13950.682 
      89   0.21521868   -797.01121            0    -797.0077    13951.723 
      90   0.22447554   -797.01134            0   -797.00769    13952.767 
      91   0.23353346   -797.01148            0   -797.00768    13953.809 
      92   0.24231317   -797.01161            0   -797.00767    13954.846 
      93   0.25031939   -797.01175            0   -797.00767    13955.879 
      94   0.25346986   -797.01188            0   -797.00775    13956.814 
      95   0.21727917     -797.012            0   -797.00846    13957.201 
      96  0.057626107   -797.01206            0   -797.01112    13955.435 
      97 0.0053345284   -797.01207            0   -797.01198    13954.872 
      98  0.008354752   -797.01209            0   -797.01196    13955.067 
      99  0.010643062   -797.01212            0   -797.01194    13955.267 
     100  0.012782619   -797.01214            0   -797.01193    13955.478 
     101  0.015069323   -797.01217            0   -797.01192    13955.706 
     102  0.017520638    -797.0122            0   -797.01192    13955.951 
     103  0.020130056   -797.01223            0   -797.01191    13956.214 
     104  0.022890088   -797.01227            0   -797.01189    13956.492 
     105  0.025792838    -797.0123            0   -797.01188    13956.787 
     106  0.028830027   -797.01234            0   -797.01187    13957.097 
     107  0.031993035   -797.01238            0   -797.01186    13957.422 
     108  0.035272932   -797.01242            0   -797.01185     13957.76 
     109  0.038660508   -797.01247            0   -797.01184    13958.112 
     110  0.042146323   -797.01251            0   -797.01183    13958.476 
     111  0.045720737   -797.01256            0   -797.01181    13958.852 
     112  0.049373938   -797.01261            0    -797.0118    13959.239 
     113  0.053096053   -797.01265            0   -797.01179    13959.635 
     114  0.056877097    -797.0127            0   -797.01178     13960.04 
     115   0.06070704   -797.01275            0   -797.01177    13960.453 
     116  0.064575906   -797.01281            0   -797.01175    13960.874 
     117  0.068473765   -797.01286            0   -797.01174    13961.301 
     118  0.072390876   -797.01291            0   -797.01173    13961.733 
     119  0.076317284   -797.01296            0   -797.01172     13962.17 
     120  0.080243382   -797.01302            0   -797.01171    13962.611 
     121  0.084159742   -797.01307            0    -797.0117    13963.054 
     122  0.088057133   -797.01313            0   -797.01169    13963.498 
     123  0.091926601   -797.01318            0   -797.01168    13963.943 
     124  0.095759498   -797.01324            0   -797.01168    13964.388 
     125  0.099547305   -797.01329            0   -797.01167    13964.831 
     126   0.10328166   -797.01334            0   -797.01166    13965.272 
     127   0.10694743    -797.0134            0   -797.01166    13965.705 
     128   0.11048863   -797.01345            0   -797.01165    13966.146 
     129   0.11331318   -797.01351            0   -797.01166    13966.528 
     130   0.10920537   -797.01356            0   -797.01178    13966.939 
     131  0.055605975   -797.01359            0   -797.01269    13966.221 
     132 0.0014960733    -797.0136            0   -797.01357    13965.616 
     133 0.0027243528    -797.0136            0   -797.01356    13965.742 
     134 0.0038673242   -797.01361            0   -797.01355    13965.843 
     135 0.0046924225   -797.01362            0   -797.01355    13965.926 
     136 0.0055304836   -797.01363            0   -797.01354    13966.009 
     137 0.0064294479   -797.01364            0   -797.01354    13966.098 
     138 0.0073885713   -797.01366            0   -797.01354    13966.193 
     139 0.0084056962   -797.01367            0   -797.01353    13966.294 
     140 0.0094785727   -797.01368            0   -797.01353    13966.401 
     141  0.010604818    -797.0137            0   -797.01352    13966.512 
     142  0.011781945   -797.01371            0   -797.01352    13966.629 
     143  0.013007356   -797.01373            0   -797.01351    13966.751 
     144  0.014278362   -797.01374            0   -797.01351    13966.877 
     145  0.015592185   -797.01376            0   -797.01351    13967.007 
     146  0.016945978   -797.01378            0    -797.0135    13967.142 
     147   0.01833682   -797.01379            0    -797.0135     13967.28 
     148  0.019761736   -797.01381            0   -797.01349    13967.421 
     149  0.021217698   -797.01383            0   -797.01349    13967.565 
     150   0.02270164   -797.01385            0   -797.01348    13967.712 
     151  0.024210469   -797.01387            0   -797.01348    13967.861 
     152  0.025741062   -797.01389            0   -797.01347    13968.012 
     153  0.027290306   -797.01391            0   -797.01347    13968.164 
     154   0.02885507   -797.01393            0   -797.01346    13968.317 
     155  0.030432267   -797.01395            0   -797.01346     13968.47 
     156  0.032018722   -797.01397            0   -797.01345    13968.624 
     157  0.033611302   -797.01399            0   -797.01345    13968.777 
     158  0.035206907   -797.01402            0   -797.01344     13968.93 
     159  0.036802809   -797.01404            0   -797.01344    13969.082 
     160  0.038395634   -797.01406            0   -797.01343    13969.232 
     161   0.03998332   -797.01408            0   -797.01343    13969.381 
     162  0.041561399    -797.0141            0   -797.01342    13969.527 
     163  0.043130188   -797.01412            0   -797.01342    13969.674 
     164  0.044677049   -797.01414            0   -797.01342    13969.805 
     165  0.046185031   -797.01417            0   -797.01341    13969.972 
     166  0.047257747   -797.01419            0   -797.01342    13969.999 
     167  0.043560849   -797.01421            0    -797.0135     13970.38 
     168  0.014023887   -797.01422            0   -797.01399    13969.487 
     169 0.00023961243   -797.01422            0   -797.01421    13969.376 
     170 0.00038247062   -797.01422            0   -797.01421    13969.459 
     171 0.00057248003   -797.01422            0   -797.01421    13969.539 
     172 0.00079271849   -797.01422            0   -797.01421    13969.601 
     173 0.0010257776   -797.01423            0   -797.01421    13969.643 
     174 0.0012770795   -797.01423            0   -797.01421    13969.672 
     175 0.0015530445   -797.01423            0   -797.01421    13969.696 
     176 0.0018545969   -797.01424            0   -797.01421    13969.718 
     177 0.0021812049   -797.01424            0    -797.0142    13969.742 
     178 0.0025322484   -797.01424            0    -797.0142    13969.767 
     179  0.002907078   -797.01425            0    -797.0142    13969.794 
     180 0.0033050042   -797.01425            0    -797.0142    13969.822 
     181 0.0037253012   -797.01426            0    -797.0142    13969.852 
     182 0.0041672056   -797.01426            0    -797.0142    13969.882 
     183  0.004629916   -797.01427            0   -797.01419    13969.914 
     184 0.0051125953   -797.01428            0   -797.01419    13969.948 
     185 0.0056143724   -797.01428            0   -797.01419    13969.982 
     186 0.0061343444   -797.01429            0   -797.01419    13970.017 
     187 0.0066715798    -797.0143            0   -797.01419    13970.052 
     188 0.0072251188    -797.0143            0   -797.01419    13970.088 
     189 0.0077939767   -797.01431            0   -797.01418    13970.125 
     190 0.0083771511   -797.01432            0   -797.01418    13970.162 
     191 0.0089736145   -797.01433            0   -797.01418    13970.199 
     192 0.0095823246   -797.01433            0   -797.01418    13970.237 
     193  0.010202224   -797.01434            0   -797.01417    13970.273 
     194  0.010832225   -797.01435            0   -797.01417    13970.309 
     195  0.011471251   -797.01436            0   -797.01417    13970.345 
     196  0.012118234   -797.01437            0   -797.01417     13970.38 
     197   0.01277207   -797.01437            0   -797.01417    13970.415 
     198  0.013431694   -797.01438            0   -797.01416    13970.448 
     199  0.014095976   -797.01439            0   -797.01416    13970.481 
     200  0.014763887    -797.0144            0   -797.01416    13970.512 
     201  0.015434248   -797.01441            0   -797.01416    13970.542 
     202  0.016106137   -797.01442            0   -797.01415    13970.569 
     203  0.016778191   -797.01443            0   -797.01415    13970.599 
     204  0.017449138   -797.01443            0   -797.01415    13970.615 
     205  0.018112761   -797.01444            0   -797.01415    13970.663 
     206   0.01870728   -797.01445            0   -797.01415    13970.596 
     207  0.018552021   -797.01446            0   -797.01416    13970.895 
     208  0.011693207   -797.01447            0   -797.01428    13970.039 
     209 0.00051800744   -797.01447            0   -797.01446    13970.199 
     210 0.00073293378   -797.01447            0   -797.01446    13970.396 
     211 0.00085911583   -797.01447            0   -797.01446    13970.439 
     212 0.0010054203   -797.01447            0   -797.01446    13970.444 
     213 0.0011649364   -797.01447            0   -797.01446    13970.447 
     214 0.0013352206   -797.01448            0   -797.01445     13970.45 
     215 0.0015159918   -797.01448            0   -797.01445    13970.453 
     216 0.0017069719   -797.01448            0   -797.01445    13970.455 
     217 0.0019078566   -797.01448            0   -797.01445    13970.458 
     218  0.002118327   -797.01449            0   -797.01445    13970.461 
     219 0.0023380462   -797.01449            0   -797.01445    13970.463 
     220  0.002566664   -797.01449            0   -797.01445    13970.465 
     221 0.0028038167   -797.01449            0   -797.01445    13970.467 
     222  0.003049128    -797.0145            0   -797.01445    13970.469 
     223  0.003302209    -797.0145            0   -797.01445     13970.47 
     224 0.0035626596    -797.0145            0   -797.01445    13970.471 
     225 0.0038300694   -797.01451            0   -797.01445    13970.471 
     226 0.0041040167   -797.01451            0   -797.01444    13970.471 
     227 0.0043840735   -797.01451            0   -797.01444     13970.47 
     228 0.0046698024   -797.01452            0   -797.01444    13970.468 
     229  0.004960761   -797.01452            0   -797.01444    13970.466 
     230 0.0052564971   -797.01453            0   -797.01444    13970.463 
     231 0.0055565581   -797.01453            0   -797.01444    13970.459 
     232 0.0058604798   -797.01453            0   -797.01444    13970.454 
     233 0.0061678059   -797.01454            0   -797.01444    13970.448 
     234  0.006478057   -797.01454            0   -797.01444    13970.441 
     235 0.0067907976   -797.01454            0   -797.01443    13970.433 
     236 0.0071054899   -797.01455            0   -797.01443    13970.424 
     237  0.007421754   -797.01455            0   -797.01443    13970.413 
     238  0.007738916   -797.01456            0   -797.01443    13970.402 
     239 0.0080566026   -797.01456            0   -797.01443    13970.385 
     240 0.0083705366   -797.01456            0   -797.01443    13970.385 
     241 0.0086473403   -797.01457            0   -797.01443    13970.318 
     242 0.0084694363   -797.01457            0   -797.01443    13970.471 
     243 0.0046791975   -797.01457            0    -797.0145    13970.013 
     244 0.00011191926   -797.01458            0   -797.01457    13970.029 
     245 0.00015095302   -797.01458            0   -797.01457    13970.105 
     246 0.00018964364   -797.01458            0   -797.01457    13970.162 
     247 0.00022951481   -797.01458            0   -797.01457    13970.189 
     248 0.00027892561   -797.01458            0   -797.01457    13970.195 
     249 0.00033675562   -797.01458            0   -797.01457    13970.194 
     250 0.00040050497   -797.01458            0   -797.01457     13970.19 
     251 0.00046953068   -797.01458            0   -797.01457    13970.186 
     252 0.00054368428   -797.01458            0   -797.01457    13970.181 
     253 0.00062285797   -797.01458            0   -797.01457    13970.175 
     254 0.00070693692   -797.01458            0   -797.01457     13970.17 
     255 0.00079579811   -797.01458            0   -797.01457    13970.163 
     256 0.00088931117   -797.01458            0   -797.01457    13970.157 
     257 0.00098733875   -797.01459            0   -797.01457    13970.149 
     258 0.0010897366   -797.01459            0   -797.01457    13970.142 
     259 0.0011963542   -797.01459            0   -797.01457    13970.133 
     260 0.0013070346   -797.01459            0   -797.01457    13970.124 
     261 0.0014216153   -797.01459            0   -797.01457    13970.115 
     262 0.0015399276   -797.01459            0   -797.01457    13970.105 
     263 0.0016617977   -797.01459            0   -797.01457    13970.094 
     264 0.0017870468    -797.0146            0   -797.01457    13970.083 
     265 0.0019154909    -797.0146            0   -797.01457    13970.071 
     266 0.0020469421    -797.0146            0   -797.01457    13970.058 
     267 0.0021812077    -797.0146            0   -797.01457    13970.045 
     268 0.0023180915    -797.0146            0   -797.01456    13970.031 
     269 0.0024573937    -797.0146            0   -797.01456    13970.016 
     270 0.0025989111   -797.01461            0   -797.01456        13970 
     271 0.0027424377   -797.01461            0   -797.01456    13969.983 
     272 0.0028877649   -797.01461            0   -797.01456    13969.966 
     273 0.0030346762   -797.01461            0   -797.01456    13969.948 
     274 0.0031829585   -797.01461            0   -797.01456    13969.929 
     275 0.0033324017   -797.01461            0   -797.01456    13969.909 
     276 0.0034827899   -797.01462            0   -797.01456    13969.888 
     277 0.0036339042   -797.01462            0   -797.01456    13969.866 
     278  0.003785511   -797.01462            0   -797.01456    13969.843 
     279 0.0039372433   -797.01462            0   -797.01456     13969.82 
     280 0.0040872383   -797.01462            0   -797.01456    13969.794 
     281 0.0042152817   -797.01463            0   -797.01456    13969.771 
     282 0.0040678715   -797.01463            0   -797.01456     13969.73 
     283 0.0018487738   -797.01463            0    -797.0146     13969.71 
     284 2.2139845e-05   -797.01463            0   -797.01463    13969.679 
     285 4.0306402e-05   -797.01463            0   -797.01463    13969.671 
     286 6.8653765e-05   -797.01463            0   -797.01463    13969.663 
     287 9.874465e-05   -797.01463            0   -797.01463    13969.657 
     288 0.00012520017   -797.01463            0   -797.01463    13969.652 
     289 0.00015200491   -797.01463            0   -797.01463    13969.647 
     290 0.00018099834   -797.01463            0   -797.01463    13969.641 
     291 0.0002123786   -797.01463            0   -797.01463    13969.635 
     292 0.00024611371   -797.01463            0   -797.01463    13969.629 
     293 0.00028215704   -797.01463            0   -797.01463    13969.622 
     294 0.00032045849   -797.01463            0   -797.01463    13969.615 
     295 0.0003609646   -797.01463            0   -797.01463    13969.607 
     296 0.00040361871   -797.01463            0   -797.01463    13969.598 
     297 0.00044836101   -797.01463            0   -797.01463    13969.589 
     298 0.00049512862   -797.01463            0   -797.01463     13969.58 
     299 0.0005438557   -797.01464            0   -797.01463    13969.569 
     300 0.00059447351   -797.01464            0   -797.01463    13969.559 
     301 0.00064691056   -797.01464            0   -797.01463    13969.548 
     302 0.0007010927   -797.01464            0   -797.01463    13969.536 
     303 0.00075694318   -797.01464            0   -797.01463    13969.523 
     304 0.00081438282   -797.01464            0   -797.01463     13969.51 
     305 0.00087333007   -797.01464            0   -797.01462    13969.497 
     306 0.00093370115   -797.01464            0   -797.01462    13969.483 
     307 0.00099541042   -797.01464            0   -797.01462    13969.468 
     308 0.0010583696   -797.01464            0   -797.01462    13969.453 
     309 0.0011224887   -797.01464            0   -797.01462    13969.437 
     310 0.0011876761   -797.01464            0   -797.01462    13969.421 
     311 0.0012538388   -797.01464            0   -797.01462    13969.403 
     312 0.0013208817   -797.01464            0   -797.01462    13969.386 
     313 0.0013887088   -797.01465            0   -797.01462    13969.367 
     314 0.0014572221   -797.01465            0   -797.01462    13969.348 
     315 0.0015263225   -797.01465            0   -797.01462    13969.329 
     316 0.0015959102   -797.01465            0   -797.01462    13969.308 
     317 0.0016658839   -797.01465            0   -797.01462    13969.288 
     318 0.0017361412   -797.01465            0   -797.01462    13969.266 
     319 0.0018065756   -797.01465            0   -797.01462    13969.244 
     320 0.0018770356   -797.01465            0   -797.01462    13969.221 
     321 0.0019468779   -797.01465            0   -797.01462    13969.197 
     322 0.0020086616   -797.01465            0   -797.01462    13969.174 
     323 0.0019597633   -797.01465            0   -797.01462    13969.145 
     324 0.00094179046   -797.01465            0   -797.01464    13969.124 
     325 7.3477999e-06   -797.01465            0   -797.01465    13969.108 
     326 1.3418381e-05   -797.01465            0   -797.01465    13969.105 
     327 2.3773569e-05   -797.01465            0   -797.01465    13969.101 
     328 3.6979885e-05   -797.01465            0   -797.01465    13969.097 
     329 4.9092489e-05   -797.01465            0   -797.01465    13969.093 
     330  6.06515e-05   -797.01465            0   -797.01465    13969.088 
     331 7.2992696e-05   -797.01466            0   -797.01465    13969.084 
     332 8.6395658e-05   -797.01466            0   -797.01465    13969.079 
     333 0.0001008665   -797.01466            0   -797.01465    13969.074 
     334 0.00011638626   -797.01466            0   -797.01465    13969.068 
     335 0.0001329338   -797.01466            0   -797.01465    13969.062 
     336 0.00015048648   -797.01466            0   -797.01465    13969.055 
     337 0.00016902017   -797.01466            0   -797.01465    13969.048 
     338 0.00018850931   -797.01466            0   -797.01465    13969.041 
     339 0.00020892693   -797.01466            0   -797.01465    13969.033 
     340 0.00023024469   -797.01466            0   -797.01465    13969.024 
     341 0.0002524329   -797.01466            0   -797.01465    13969.015 
     342 0.00027546056   -797.01466            0   -797.01465    13969.006 
     343 0.00029929549   -797.01466            0   -797.01465    13968.996 
     344 0.00032390414   -797.01466            0   -797.01465    13968.986 
     345 0.00034925195   -797.01466            0   -797.01465    13968.976 
     346 0.00037530296   -797.01466            0   -797.01465    13968.965 
     347 0.00040202023   -797.01466            0   -797.01465    13968.953 
     348 0.00042936575   -797.01466            0   -797.01465    13968.942 
     349 0.00045730046   -797.01466            0   -797.01465    13968.929 
     350 0.00048578434   -797.01466            0   -797.01465    13968.917 
     351 0.0005147764   -797.01466            0   -797.01465    13968.903 
     352 0.00054423475   -797.01466            0   -797.01465     13968.89 
     353 0.00057411673   -797.01466            0   -797.01465    13968.876 
     354 0.00060437863   -797.01466            0   -797.01465    13968.861 
     355 0.00063497609   -797.01466            0   -797.01465    13968.846 
     356 0.00066586399   -797.01466            0   -797.01465    13968.831 
     357 0.00069699641   -797.01466            0   -797.01465    13968.815 
     358 0.00072832668   -797.01466            0   -797.01465    13968.799 
     359 0.0007598071   -797.01466            0   -797.01465    13968.783 
     360 0.00079138541   -797.01466            0   -797.01465    13968.766 
     361 0.00082296914   -797.01466            0   -797.01465    13968.748 
     362 0.00085399805   -797.01466            0   -797.01465     13968.73 
     363 0.00087798996   -797.01466            0   -797.01465    13968.712 
     364 0.00081319332   -797.01467            0   -797.01465    13968.692 
     365 0.00024636938   -797.01467            0   -797.01466    13968.677 
     366 2.0613125e-06   -797.01467            0   -797.01467    13968.673 
     367 3.7962535e-06   -797.01467            0   -797.01467    13968.672 
     368 6.6645787e-06   -797.01467            0   -797.01467     13968.67 
     369 1.0808656e-05   -797.01467            0   -797.01467    13968.668 
     370 1.5563175e-05   -797.01467            0   -797.01467    13968.666 
     371 2.0364643e-05   -797.01467            0   -797.01467    13968.663 
     372 2.5396776e-05   -797.01467            0   -797.01467     13968.66 
     373 3.0878241e-05   -797.01467            0   -797.01467    13968.657 
     374 3.6863798e-05   -797.01467            0   -797.01467    13968.653 
     375 4.3352965e-05   -797.01467            0   -797.01467     13968.65 
     376 5.033733e-05   -797.01467            0   -797.01467    13968.645 
     377 5.7807349e-05   -797.01467            0   -797.01467    13968.641 
     378 6.5752744e-05   -797.01467            0   -797.01467    13968.636 
     379 7.4162525e-05   -797.01467            0   -797.01467    13968.631 
     380 8.3025004e-05   -797.01467            0   -797.01467    13968.625 
     381 9.2327811e-05   -797.01467            0   -797.01467    13968.619 
     382 0.0001020579   -797.01467            0   -797.01466    13968.613 
     383 0.00011220157   -797.01467            0   -797.01466    13968.607 
     384 0.00012274447   -797.01467            0   -797.01466      13968.6 
     385 0.00013367163   -797.01467            0   -797.01466    13968.593 
     386 0.00014496746   -797.01467            0   -797.01466    13968.585 
     387 0.00015661577   -797.01467            0   -797.01466    13968.578 
     388 0.00016859979   -797.01467            0   -797.01466     13968.57 
     389 0.00018090219   -797.01467            0   -797.01466    13968.561 
     390 0.00019350507   -797.01467            0   -797.01466    13968.552 
     391 0.00020639002   -797.01467            0   -797.01466    13968.543 
     392 0.00021953808   -797.01467            0   -797.01466    13968.534 
     393 0.00023292981   -797.01467            0   -797.01466    13968.525 
     394 0.00024654529   -797.01467            0   -797.01466    13968.515 
     395 0.00026036411   -797.01467            0   -797.01466    13968.505 
     396 0.00027436538   -797.01467            0   -797.01466    13968.494 
     397 0.00028852778   -797.01467            0   -797.01466    13968.483 
     398 0.00030282955   -797.01467            0   -797.01466    13968.472 
     399 0.00031724851   -797.01467            0   -797.01466    13968.461 
     400 0.00033176206   -797.01467            0   -797.01466    13968.449 
     401 0.00034634712   -797.01467            0   -797.01466    13968.437 
     402 0.00036097999   -797.01467            0   -797.01466    13968.425 
     403 0.00037563255   -797.01467            0   -797.01466    13968.413 
     404 0.00039023688   -797.01467            0   -797.01466      13968.4 
     405 0.00040421931   -797.01467            0   -797.01466    13968.387 
     406 0.00041033328   -797.01467            0   -797.01466    13968.374 
     407 0.00032410129   -797.01467            0   -797.01467    13968.361 
     408 3.0308138e-05   -797.01467            0   -797.01467    13968.353 
     409 1.4630878e-05   -797.01467            0   -797.01467    13968.351 
     410 1.7801477e-05   -797.01467            0   -797.01467    13968.348 
     411 2.0933381e-05   -797.01467            0   -797.01467    13968.346 
     412 2.4301416e-05   -797.01467            0   -797.01467    13968.343 
     413 2.7902867e-05   -797.01467            0   -797.01467    13968.339 
     414 3.1732646e-05   -797.01467            0   -797.01467    13968.336 
     415 3.5785309e-05   -797.01467            0   -797.01467    13968.332 
     416 4.0055072e-05   -797.01467            0   -797.01467    13968.328 
     417 4.4535828e-05   -797.01467            0   -797.01467    13968.324 
     418 4.9221057e-05   -797.01467            0   -797.01467    13968.319 
     419 5.4103966e-05   -797.01467            0   -797.01467    13968.315 
     420 5.9177417e-05   -797.01467            0   -797.01467     13968.31 
     421 6.4433959e-05   -797.01467            0   -797.01467    13968.304 
     422 6.9865845e-05   -797.01467            0   -797.01467    13968.299 
     423 7.5464986e-05   -797.01467            0   -797.01467    13968.294 
     424 8.1223008e-05   -797.01467            0   -797.01467    13968.288 
     425 8.7131229e-05   -797.01467            0   -797.01467    13968.282 
     426 9.3180699e-05   -797.01467            0   -797.01467    13968.275 
     427 9.9362194e-05   -797.01467            0   -797.01467    13968.269 
     428 0.00010566621   -797.01467            0   -797.01467    13968.262 
     429 0.00011208296   -797.01467            0   -797.01467    13968.255 
     430 0.00011860242   -797.01467            0   -797.01467    13968.248 
     431 0.00012521428   -797.01467            0   -797.01467    13968.241 
     432 0.00013190803   -797.01467            0   -797.01467    13968.234 
     433 0.00013867282   -797.01467            0   -797.01467    13968.226 
     434 0.0001454977   -797.01467            0   -797.01467    13968.218 
     435 0.00015237117   -797.01467            0   -797.01467     13968.21 
     436 0.00015928226   -797.01467            0   -797.01467    13968.202 
     437 0.00016621602   -797.01467            0   -797.01467    13968.193 
     438 0.00017315649   -797.01467            0   -797.01467    13968.185 
     439 0.00017995849   -797.01467            0   -797.01467    13968.175 
     440 0.00018542178   -797.01467            0   -797.01467    13968.172 
     441 0.00017471697   -797.01467            0   -797.01467    13968.143 
     442 7.020416e-05   -797.01467            0   -797.01467    13968.176 
     443 1.5141269e-06   -797.01467            0   -797.01467    13968.168 
     444 2.2580053e-06   -797.01467            0   -797.01467     13968.16 
     445 3.1593459e-06   -797.01467            0   -797.01467    13968.154 
     446 4.1511845e-06   -797.01467            0   -797.01467     13968.15 
     447 5.2444965e-06   -797.01467            0   -797.01467    13968.147 
     448 6.4717571e-06   -797.01467            0   -797.01467    13968.145 
     449 7.8290597e-06   -797.01467            0   -797.01467    13968.143 
     450 9.3104151e-06   -797.01467            0   -797.01467    13968.141 
     451 1.091305e-05   -797.01467            0   -797.01467    13968.139 
     452 1.2634647e-05   -797.01467            0   -797.01467    13968.137 
     453 1.4472692e-05   -797.01467            0   -797.01467    13968.135 
     454 1.6424476e-05   -797.01467            0   -797.01467    13968.132 
     455  1.84871e-05   -797.01467            0   -797.01467    13968.129 
     456 2.0657484e-05   -797.01467            0   -797.01467    13968.127 
     457 2.2932366e-05   -797.01467            0   -797.01467    13968.124 
     458 2.5308304e-05   -797.01467            0   -797.01467     13968.12 
     459 2.778168e-05   -797.01467            0   -797.01467    13968.117 
     460 3.0348707e-05   -797.01467            0   -797.01467    13968.113 
     461 3.3005421e-05   -797.01467            0   -797.01467     13968.11 
     462 3.5747696e-05   -797.01467            0   -797.01467    13968.106 
     463 3.8571239e-05   -797.01467            0   -797.01467    13968.102 
     464 4.1471596e-05   -797.01467            0   -797.01467    13968.098 
     465 4.4444156e-05   -797.01467            0   -797.01467    13968.094 
     466 4.7484153e-05   -797.01467            0   -797.01467    13968.089 
     467 5.0586668e-05   -797.01467            0   -797.01467    13968.084 
     468 5.3746632e-05   -797.01467            0   -797.01467     13968.08 
     469 5.6958831e-05   -797.01467            0   -797.01467    13968.075 
     470 6.0217907e-05   -797.01467            0   -797.01467     13968.07 
     471 6.3518358e-05   -797.01467            0   -797.01467    13968.065 
     472 6.6854545e-05   -797.01467            0   -797.01467     13968.06 
     473 7.0220691e-05   -797.01467            0   -797.01467    13968.054 
     474 7.3610884e-05   -797.01467            0   -797.01467    13968.049 
     475 7.7019071e-05   -797.01467            0   -797.01467    13968.043 
     476 8.0439043e-05   -797.01467            0   -797.01467    13968.037 
     477 8.3864202e-05   -797.01467            0   -797.01467    13968.031 
     478 8.7285234e-05   -797.01467            0   -797.01467    13968.025 
     479 9.0664195e-05   -797.01467            0   -797.01467    13968.019 
     480 9.3613298e-05   -797.01467            0   -797.01467    13968.013 
     481 9.1316734e-05   -797.01467            0   -797.01467    13968.008 
     482 4.6479497e-05   -797.01467            0   -797.01467        13968 
     483 7.7848647e-07   -797.01467            0   -797.01467    13967.999 
     484 1.4836825e-06   -797.01467            0   -797.01467    13967.999 
     485 2.4111394e-06   -797.01467            0   -797.01467    13967.999 
     486 3.1471434e-06   -797.01467            0   -797.01467    13967.998 
     487 3.8284577e-06   -797.01467            0   -797.01467    13967.997 
     488 4.5613496e-06   -797.01467            0   -797.01467    13967.995 
     489 5.3545182e-06   -797.01467            0   -797.01467    13967.994 
     490 6.2069657e-06   -797.01467            0   -797.01467    13967.993 
     491 7.1173747e-06   -797.01467            0   -797.01467    13967.991 
     492 8.0843267e-06   -797.01467            0   -797.01467    13967.989 
     493 9.1063038e-06   -797.01467            0   -797.01467    13967.987 
     494 1.018169e-05   -797.01467            0   -797.01467    13967.985 
     495 1.1308773e-05   -797.01467            0   -797.01467    13967.983 
     496 1.2485744e-05   -797.01467            0   -797.01467    13967.981 
     497 1.3710702e-05   -797.01467            0   -797.01467    13967.979 
     498 1.4981653e-05   -797.01467            0   -797.01467    13967.976 
     499 1.629651e-05   -797.01467            0   -797.01467    13967.974 
     500 1.7653099e-05   -797.01467            0   -797.01467    13967.971 
     501 1.9049156e-05   -797.01467            0   -797.01467    13967.968 
     502 2.0482331e-05   -797.01467            0   -797.01467    13967.966 
     503 2.1950187e-05   -797.01467            0   -797.01467    13967.963 
     504 2.3450207e-05   -797.01467            0   -797.01467     13967.96 
     505 2.4979787e-05   -797.01467            0   -797.01467    13967.956 
     506 2.6536247e-05   -797.01467            0   -797.01467    13967.953 
     507 2.8116823e-05   -797.01467            0   -797.01467     13967.95 
     508 2.9718676e-05   -797.01467            0   -797.01467    13967.946 
     509 3.1338889e-05   -797.01467            0   -797.01467    13967.943 
     510 3.2974468e-05   -797.01467            0   -797.01467    13967.939 
     511 3.4622349e-05   -797.01467            0   -797.01467    13967.936 
     512 3.6279384e-05   -797.01467            0   -797.01467    13967.932 
     513 3.7942376e-05   -797.01467            0   -797.01467    13967.928 
     514 3.9607992e-05   -797.01467            0   -797.01467    13967.924 
     515 4.1272954e-05   -797.01467            0   -797.01467     13967.92 
     516 4.2933184e-05   -797.01467            0   -797.01467    13967.916 
     517 4.4581808e-05   -797.01467            0   -797.01467    13967.912 
     518 4.6158752e-05   -797.01467            0   -797.01467    13967.908 
     519 4.6911052e-05   -797.01467            0   -797.01467    13967.903 
     520 3.7430246e-05   -797.01467            0   -797.01467      13967.9 
     521 3.4237801e-06   -797.01467            0   -797.01467    13967.898 
     522 1.5110191e-06   -797.01467            0   -797.01467    13967.897 
     523 1.881665e-06   -797.01467            0   -797.01467    13967.896 
     524 2.2448001e-06   -797.01467            0   -797.01467    13967.896 
     525 2.6374535e-06   -797.01467            0   -797.01467    13967.895 
     526 3.0594808e-06   -797.01467            0   -797.01467    13967.894 
     527 3.5101856e-06   -797.01467            0   -797.01467    13967.892 
     528 3.9888159e-06   -797.01467            0   -797.01467    13967.891 
     529 4.494566e-06   -797.01467            0   -797.01467     13967.89 
     530 5.0265777e-06   -797.01467            0   -797.01467    13967.889 
     531 5.5839413e-06   -797.01467            0   -797.01467    13967.887 
     532 6.1656961e-06   -797.01467            0   -797.01467    13967.886 
     533 6.7708312e-06   -797.01467            0   -797.01467    13967.884 
     534 7.3982861e-06   -797.01467            0   -797.01467    13967.883 
     535 8.0469515e-06   -797.01467            0   -797.01467    13967.881 
     536 8.7156703e-06   -797.01467            0   -797.01467    13967.879 
     537 9.4032382e-06   -797.01467            0   -797.01467    13967.877 
     538 1.0108405e-05   -797.01467            0   -797.01467    13967.875 
     539 1.0829873e-05   -797.01467            0   -797.01467    13967.873 
     540 1.1566303e-05   -797.01467            0   -797.01467    13967.871 
     541 1.231631e-05   -797.01467            0   -797.01467    13967.869 
     542 1.3078466e-05   -797.01467            0   -797.01467    13967.867 
     543 1.3851301e-05   -797.01467            0   -797.01467    13967.865 
     544 1.4633305e-05   -797.01467            0   -797.01467    13967.862 
     545 1.5422926e-05   -797.01467            0   -797.01467     13967.86 
     546 1.6218573e-05   -797.01467            0   -797.01467    13967.858 
     547 1.7018614e-05   -797.01467            0   -797.01467    13967.855 
     548 1.7821376e-05   -797.01467            0   -797.01467    13967.853 
     549 1.8625101e-05   -797.01467            0   -797.01467     13967.85 
     550 1.9427589e-05   -797.01467            0   -797.01467    13967.848 
     551 2.0222197e-05   -797.01467            0   -797.01467    13967.845 
     552 2.0952815e-05   -797.01467            0   -797.01467    13967.842 
     553 2.0961905e-05   -797.01467            0   -797.01467    13967.839 
     554 1.4187991e-05   -797.01467            0   -797.01467    13967.838 
     555 7.7528409e-07   -797.01467            0   -797.01467    13967.837 
     556 1.2698612e-06   -797.01467            0   -797.01467    13967.836 
     557 1.4768201e-06   -797.01467            0   -797.01467    13967.835 
     558 1.7089404e-06   -797.01467            0   -797.01467    13967.834 
     559 1.9566582e-06   -797.01467            0   -797.01467    13967.834 
     560 2.2193349e-06   -797.01467            0   -797.01467    13967.833 
     561 2.4964877e-06   -797.01467            0   -797.01467    13967.832 
     562 2.787609e-06   -797.01467            0   -797.01467    13967.831 
     563 3.092164e-06   -797.01467            0   -797.01467     13967.83 
     564 3.4095878e-06   -797.01467            0   -797.01467    13967.829 
     565 3.7392871e-06   -797.01467            0   -797.01467    13967.828 
     566 4.0806396e-06   -797.01467            0   -797.01467    13967.827 
     567 4.4329956e-06   -797.01467            0   -797.01467    13967.825 
     568 4.795677e-06   -797.01467            0   -797.01467    13967.824 
     569 5.1679798e-06   -797.01467            0   -797.01467    13967.823 
     570 5.5491719e-06   -797.01467            0   -797.01467    13967.821 
     571 5.938497e-06   -797.01467            0   -797.01467     13967.82 
     572 6.3351677e-06   -797.01467            0   -797.01467    13967.819 
     573 6.7383705e-06   -797.01467            0   -797.01467    13967.817 
     574 7.1472155e-06   -797.01467            0   -797.01467    13967.816 
     575 7.5606171e-06   -797.01467            0   -797.01467    13967.814 
     576 7.9762683e-06   -797.01467            0   -797.01467    13967.812 
     577 8.384802e-06   -797.01467            0   -797.01467    13967.811 
     578 8.7268802e-06   -797.01467            0   -797.01467    13967.809 
     579 8.5906981e-06   -797.01467            0   -797.01467    13967.808 
     580 5.8595901e-06   -797.01467            0   -797.01467    13967.805 
     581 9.9062612e-07   -797.01467            0   -797.01467    13967.805 
     582 7.7951087e-07   -797.01467            0   -797.01467    13967.805 
     583 9.1100488e-07   -797.01467            0   -797.01467    13967.804 
     584 1.0578241e-06   -797.01467            0   -797.01467    13967.804 
     585 1.2147017e-06   -797.01467            0   -797.01467    13967.803 
     586 1.3812428e-06   -797.01467            0   -797.01467    13967.803 
     587 1.5571266e-06   -797.01467            0   -797.01467    13967.802 
     588 1.7420144e-06   -797.01467            0   -797.01467    13967.801 
     589 1.935549e-06   -797.01467            0   -797.01467      13967.8 
     590 2.1373524e-06   -797.01467            0   -797.01467      13967.8 
     591 2.3470277e-06   -797.01467            0   -797.01467    13967.799 
     592 2.5641582e-06   -797.01467            0   -797.01467    13967.798 
     593 2.7883089e-06   -797.01467            0   -797.01467    13967.797 
     594 3.0190256e-06   -797.01467            0   -797.01467    13967.796 
     595 3.2558367e-06   -797.01467            0   -797.01467    13967.795 
     596 3.4982519e-06   -797.01467            0   -797.01467    13967.794 
     597 3.7457646e-06   -797.01467            0   -797.01467    13967.793 
     598 3.9978476e-06   -797.01467            0   -797.01467    13967.792 
     599 4.253955e-06   -797.01467            0   -797.01467    13967.791 
     600 4.5134859e-06   -797.01467            0   -797.01467    13967.789 
     601 4.7756774e-06   -797.01467            0   -797.01467    13967.788 
     602 5.0387562e-06   -797.01467            0   -797.01467    13967.787 
     603 5.2948135e-06   -797.01467            0   -797.01467    13967.786 
     604 5.4918011e-06   -797.01467            0   -797.01467    13967.784 
     605 5.2669499e-06   -797.01467            0   -797.01467    13967.783 
     606 3.049155e-06   -797.01467            0   -797.01467    13967.782 
     607 3.9346511e-07   -797.01467            0   -797.01467    13967.782 
     608 4.930043e-07   -797.01467            0   -797.01467    13967.781 
     609 5.809036e-07   -797.01467            0   -797.01467    13967.781 
     610  6.75517e-07   -797.01467            0   -797.01467    13967.781 
     611 7.765753e-07   -797.01467            0   -797.01467     13967.78 
     612 8.8387646e-07   -797.01467            0   -797.01467     13967.78 
     613 9.9720514e-07   -797.01467            0   -797.01467    13967.779 
     614 1.1163324e-06   -797.01467            0   -797.01467    13967.779 
     615 1.2410153e-06   -797.01467            0   -797.01467    13967.778 
     616 1.3709977e-06   -797.01467            0   -797.01467    13967.777 
     617 1.5060099e-06   -797.01467            0   -797.01467    13967.777 
     618 1.6457693e-06   -797.01467            0   -797.01467    13967.776 
     619 1.7899806e-06   -797.01467            0   -797.01467    13967.775 
     620 1.9383362e-06   -797.01467            0   -797.01467    13967.775 
     621 2.0905162e-06   -797.01467            0   -797.01467    13967.774 
     622 2.2461892e-06   -797.01467            0   -797.01467    13967.773 
     623 2.405012e-06   -797.01467            0   -797.01467    13967.772 
     624 2.5666307e-06   -797.01467            0   -797.01467    13967.771 
     625 2.7306797e-06   -797.01467            0   -797.01467     13967.77 
     626 2.8967828e-06   -797.01467            0   -797.01467     13967.77 
     627 3.0645424e-06   -797.01467            0   -797.01467    13967.769 
     628 3.2335048e-06   -797.01467            0   -797.01467    13967.768 
     629 3.402835e-06   -797.01467            0   -797.01467    13967.767 
     630 3.5690747e-06   -797.01467            0   -797.01467    13967.766 
     631 3.7070351e-06   -797.01467            0   -797.01467    13967.765 
     632 3.6113001e-06   -797.01467            0   -797.01467    13967.764 
     633 2.1599327e-06   -797.01467            0   -797.01467    13967.763 
     634 2.035047e-07   -797.01467            0   -797.01467    13967.763 
     635 2.8972916e-07   -797.01467            0   -797.01467    13967.762 
     636 3.426959e-07   -797.01467            0   -797.01467    13967.762 
     637 4.0038058e-07   -797.01467            0   -797.01467    13967.762 
     638 4.6212744e-07   -797.01467            0   -797.01467    13967.761 
     639 5.2779837e-07   -797.01467            0   -797.01467    13967.761 
     640 5.9725369e-07   -797.01467            0   -797.01467    13967.761 
     641 6.703453e-07   -797.01467            0   -797.01467     13967.76 
     642 7.4691593e-07   -797.01467            0   -797.01467     13967.76 
     643 8.2679951e-07   -797.01467            0   -797.01467    13967.759 
     644 9.0982125e-07   -797.01467            0   -797.01467    13967.759 
     645 9.9579791e-07   -797.01467            0   -797.01467    13967.758 
     646 1.0845379e-06   -797.01467            0   -797.01467    13967.758 
     647 1.1758417e-06   -797.01467            0   -797.01467    13967.757 
     648 1.2695018e-06   -797.01467            0   -797.01467    13967.757 
     649 1.3653033e-06   -797.01467            0   -797.01467    13967.756 
     650 1.4630237e-06   -797.01467            0   -797.01467    13967.756 
     651 1.5624335e-06   -797.01467            0   -797.01467    13967.755 
     652 1.6632943e-06   -797.01467            0   -797.01467    13967.754 
     653 1.7653556e-06   -797.01467            0   -797.01467    13967.754 
     654 1.8683182e-06   -797.01467            0   -797.01467    13967.753 
     655 1.9716409e-06   -797.01467            0   -797.01467    13967.752 
     656 2.0731071e-06   -797.01467            0   -797.01467    13967.751 
     657 2.158213e-06   -797.01467            0   -797.01467    13967.751 
     658 2.1176642e-06   -797.01467            0   -797.01467     13967.75 
     659 1.3705512e-06   -797.01467            0   -797.01467    13967.749 
     660 1.8017368e-07   -797.01467            0   -797.01467    13967.749 
     661 1.8990005e-07   -797.01467            0   -797.01467    13967.749 
     662 2.2448285e-07   -797.01467            0   -797.01467    13967.749 
     663  2.61942e-07   -797.01467            0   -797.01467    13967.748 
     664 3.0199775e-07   -797.01467            0   -797.01467    13967.748 
     665 3.4455636e-07   -797.01467            0   -797.01467    13967.748 
     666 3.8952249e-07   -797.01467            0   -797.01467    13967.748 
     667 4.367951e-07   -797.01467            0   -797.01467    13967.747 
     668 4.8626708e-07   -797.01467            0   -797.01467    13967.747 
     669 5.3782544e-07   -797.01467            0   -797.01467    13967.747 
     670 5.9135142e-07   -797.01467            0   -797.01467    13967.746 
     671 6.4672065e-07   -797.01467            0   -797.01467    13967.746 
     672 7.0380329e-07   -797.01467            0   -797.01467    13967.745 
     673 7.624643e-07   -797.01467            0   -797.01467    13967.745 
     674 8.2256343e-07   -797.01467            0   -797.01467    13967.745 
     675 8.8395562e-07   -797.01467            0   -797.01467    13967.744 
     676 9.4649068e-07   -797.01467            0   -797.01467    13967.744 
     677 1.0100132e-06   -797.01467            0   -797.01467    13967.743 
     678 1.074358e-06   -797.01467            0   -797.01467    13967.743 
     679 1.1393306e-06   -797.01467            0   -797.01467    13967.742 
     680 1.2045775e-06   -797.01467            0   -797.01467    13967.742 
     681 1.2687556e-06   -797.01467            0   -797.01467    13967.741 
     682 1.3234616e-06   -797.01467            0   -797.01467    13967.741 
     683 1.3084414e-06   -797.01467            0   -797.01467     13967.74 
     684 8.9988153e-07   -797.01467            0   -797.01467    13967.739 
     685 1.4594521e-07   -797.01467            0   -797.01467    13967.739 
     686 1.1571096e-07   -797.01467            0   -797.01467    13967.739 
     687 1.3693644e-07   -797.01467            0   -797.01467    13967.739 
     688 1.6067306e-07   -797.01467            0   -797.01467    13967.739 
     689 1.8613184e-07   -797.01467            0   -797.01467    13967.739 
     690 2.1323963e-07   -797.01467            0   -797.01467    13967.738 
     691 2.4193246e-07   -797.01467            0   -797.01467    13967.738 
     692 2.721429e-07   -797.01467            0   -797.01467    13967.738 
     693 3.0379949e-07   -797.01467            0   -797.01467    13967.738 
     694 3.3682675e-07   -797.01467            0   -797.01467    13967.737 
     695 3.7114533e-07   -797.01467            0   -797.01467    13967.737 
     696 4.0667205e-07   -797.01467            0   -797.01467    13967.737 
     697 4.433201e-07   -797.01467            0   -797.01467    13967.737 
     698 4.8099909e-07   -797.01467            0   -797.01467    13967.736 
     699 5.1961527e-07   -797.01467            0   -797.01467    13967.736 
     700 5.590715e-07   -797.01467            0   -797.01467    13967.736 
     701 5.992673e-07   -797.01467            0   -797.01467    13967.735 
     702 6.4009793e-07   -797.01467            0   -797.01467    13967.735 
     703 6.8144999e-07   -797.01467            0   -797.01467    13967.734 
     704 7.2317605e-07   -797.01468            0   -797.01467    13967.734 
     705 7.6494519e-07   -797.01468            0   -797.01467    13967.734 
     706 8.0525433e-07   -797.01468            0   -797.01467    13967.733 
     707 8.3440553e-07   -797.01468            0   -797.01467    13967.733 
     708 7.8622699e-07   -797.01468            0   -797.01467    13967.732 
     709 4.1228741e-07   -797.01468            0   -797.01467    13967.732 
     710 5.1465289e-08   -797.01468            0   -797.01468    13967.732 
     711 7.1754281e-08   -797.01468            0   -797.01468    13967.732 
     712 8.5811906e-08   -797.01468            0   -797.01468    13967.732 
     713 1.0112377e-07   -797.01468            0   -797.01468    13967.732 
     714 1.1756722e-07   -797.01468            0   -797.01468    13967.731 
     715 1.3510153e-07   -797.01468            0   -797.01468    13967.731 
     716 1.5368415e-07   -797.01468            0   -797.01468    13967.731 
     717 1.7326968e-07   -797.01468            0   -797.01468    13967.731 
     718 1.9380994e-07   -797.01468            0   -797.01468    13967.731 
     719  2.15254e-07   -797.01468            0   -797.01468     13967.73 
     720 2.3754829e-07   -797.01468            0   -797.01468     13967.73 
     721 2.6063665e-07   -797.01468            0   -797.01468     13967.73 
     722 2.8446047e-07   -797.01468            0   -797.01468     13967.73 
     723 3.0895877e-07   -797.01468            0   -797.01468     13967.73 
     724 3.3406829e-07   -797.01468            0   -797.01467    13967.729 
     725 3.5972361e-07   -797.01468            0   -797.01467    13967.729 
     726 3.8585725e-07   -797.01468            0   -797.01467    13967.729 
     727 4.1239974e-07   -797.01468            0   -797.01467    13967.728 
     728 4.3927944e-07   -797.01468            0   -797.01467    13967.728 
     729 4.6642117e-07   -797.01468            0   -797.01467    13967.728 
     730 4.9373718e-07   -797.01468            0   -797.01467    13967.728 
     731 5.2106706e-07   -797.01468            0   -797.01467    13967.727 
     732 5.4773522e-07   -797.01468            0   -797.01467    13967.727 
     733 5.6903098e-07   -797.01468            0   -797.01467    13967.727 
     734 5.4811754e-07   -797.01468            0   -797.01467    13967.726 
     735  3.07045e-07   -797.01468            0   -797.01468    13967.726 
     736 2.916231e-08   -797.01468            0   -797.01468    13967.726 
     737 4.4014665e-08   -797.01468            0   -797.01468    13967.726 
     738 5.2773961e-08   -797.01468            0   -797.01468    13967.726 
     739 6.239188e-08   -797.01468            0   -797.01468    13967.726 
     740 7.2734882e-08   -797.01468            0   -797.01468    13967.726 
     741 8.3775749e-08   -797.01468            0   -797.01468    13967.725 
     742 9.5486579e-08   -797.01468            0   -797.01468    13967.725 
     743 1.0783761e-07   -797.01468            0   -797.01468    13967.725 
     744 1.2079725e-07   -797.01468            0   -797.01468    13967.725 
     745 1.3433209e-07   -797.01468            0   -797.01468    13967.725 
     746 1.4840698e-07   -797.01468            0   -797.01468    13967.725 
     747 1.6298511e-07   -797.01468            0   -797.01468    13967.725 
     748 1.7802805e-07   -797.01468            0   -797.01468    13967.724 
     749 1.9349586e-07   -797.01468            0   -797.01468    13967.724 
     750 2.0934711e-07   -797.01468            0   -797.01468    13967.724 
     751 2.2553899e-07   -797.01468            0   -797.01468    13967.724 
     752 2.420274e-07   -797.01468            0   -797.01468    13967.724 
     753 2.587669e-07   -797.01468            0   -797.01468    13967.723 
     754 2.7571061e-07   -797.01468            0   -797.01468    13967.723 
     755 2.9280839e-07   -797.01468            0   -797.01468    13967.723 
     756 3.0999705e-07   -797.01468            0   -797.01468    13967.723 
     757 3.2713048e-07   -797.01468            0   -797.01468    13967.722 
     758 3.4347119e-07   -797.01468            0   -797.01468    13967.722 
     759 3.5361176e-07   -797.01468            0   -797.01468    13967.722 
     760 3.1759025e-07   -797.01468            0   -797.01468    13967.722 
     761 1.1955831e-07   -797.01468            0   -797.01468    13967.722 
     762 1.227861e-08   -797.01468            0   -797.01468    13967.722 
     763 1.9917738e-08   -797.01468            0   -797.01468    13967.721 
     764 2.5056658e-08   -797.01468            0   -797.01468    13967.721 
     765 3.0432513e-08   -797.01468            0   -797.01468    13967.721 
     766 3.6290064e-08   -797.01468            0   -797.01468    13967.721 
     767 4.2613849e-08   -797.01468            0   -797.01468    13967.721 
     768 4.9387505e-08   -797.01468            0   -797.01468    13967.721 
     769 5.6593374e-08   -797.01468            0   -797.01468    13967.721 
     770 6.4212539e-08   -797.01468            0   -797.01468    13967.721 
     771 7.2224853e-08   -797.01468            0   -797.01468    13967.721 
     772 8.0608984e-08   -797.01468            0   -797.01468    13967.721 
     773 8.9342459e-08   -797.01468            0   -797.01468    13967.721 
     774  9.84017e-08   -797.01468            0   -797.01468     13967.72 
     775 1.0776208e-07   -797.01468            0   -797.01468     13967.72 
     776 1.1739797e-07   -797.01468            0   -797.01468     13967.72 
     777 1.2728279e-07   -797.01468            0   -797.01468     13967.72 
     778 1.3738908e-07   -797.01468            0   -797.01468     13967.72 
     779 1.476885e-07   -797.01468            0   -797.01468     13967.72 
     780 1.5815199e-07   -797.01468            0   -797.01468     13967.72 
     781 1.6874973e-07   -797.01468            0   -797.01468    13967.719 
     782 1.7945129e-07   -797.01468            0   -797.01468    13967.719 
     783 1.902256e-07   -797.01468            0   -797.01468    13967.719 
     784 2.0104115e-07   -797.01468            0   -797.01468    13967.719 
     785 2.1186586e-07   -797.01468            0   -797.01468    13967.719 
     786 2.2266712e-07   -797.01468            0   -797.01468    13967.718 
     787 2.3340914e-07   -797.01468            0   -797.01468    13967.718 
     788 2.4403202e-07   -797.01468            0   -797.01468    13967.718 
     789 2.5421221e-07   -797.01468            0   -797.01468    13967.718 
     790 2.6064657e-07   -797.01468            0   -797.01468    13967.718 
     791 2.280007e-07   -797.01468            0   -797.01468    13967.717 
     792 5.0811518e-08   -797.01468            0   -797.01468    13967.717 
     793 2.6468785e-09   -797.01468            0   -797.01468    13967.717 
     794 4.7187155e-09   -797.01468            0   -797.01468    13967.717 
     795 7.1313582e-09   -797.01468            0   -797.01468    13967.717 
     796 9.5018109e-09   -797.01468            0   -797.01468    13967.717 
     797 1.2041675e-08   -797.01468            0   -797.01468    13967.717 
     798 1.4852215e-08   -797.01468            0   -797.01468    13967.717 
     799 1.7936341e-08   -797.01468            0   -797.01468    13967.717 
     800 2.1286014e-08   -797.01468            0   -797.01468    13967.717 
     801 2.489225e-08   -797.01468            0   -797.01468    13967.717 
     802 2.8745306e-08   -797.01468            0   -797.01468    13967.717 
     803 3.2834695e-08   -797.01468            0   -797.01468    13967.717 
     804 3.7149216e-08   -797.01468            0   -797.01468    13967.717 
     805 4.1676971e-08   -797.01468            0   -797.01468    13967.717 
     806 4.6405394e-08   -797.01468            0   -797.01468    13967.717 
     807 5.1321279e-08   -797.01468            0   -797.01468    13967.717 
     808 5.6410806e-08   -797.01468            0   -797.01468    13967.717 
     809 6.1659576e-08   -797.01468            0   -797.01468    13967.716 
     810 6.7052638e-08   -797.01468            0   -797.01468    13967.716 
     811 7.2574529e-08   -797.01468            0   -797.01468    13967.716 
     812  7.82093e-08   -797.01468            0   -797.01468    13967.716 
     813 8.3940563e-08   -797.01468            0   -797.01468    13967.716 
     814 8.9751524e-08   -797.01468            0   -797.01468    13967.716 
     815 9.5625021e-08   -797.01468            0   -797.01468    13967.716 
     816 1.0154357e-07   -797.01468            0   -797.01468    13967.716 
     817 1.0748939e-07   -797.01468            0   -797.01468    13967.716 
     818 1.1344449e-07   -797.01468            0   -797.01468    13967.715 
     819 1.1939063e-07   -797.01468            0   -797.01468    13967.715 
     820 1.2530939e-07   -797.01468            0   -797.01468    13967.715 
     821 1.3118115e-07   -797.01468            0   -797.01468    13967.715 
     822 1.3697786e-07   -797.01468            0   -797.01468    13967.715 
     823 1.4256627e-07   -797.01468            0   -797.01468    13967.715 
     824 1.465717e-07   -797.01468            0   -797.01468    13967.715 
     825 1.3276961e-07   -797.01468            0   -797.01468    13967.714 
     826 3.5270696e-08   -797.01468            0   -797.01468    13967.714 
     827 6.6940777e-10   -797.01468            0   -797.01468    13967.714 
     828 1.2851275e-09   -797.01468            0   -797.01468    13967.714 
     829 2.2686874e-09   -797.01468            0   -797.01468    13967.714 
     830 3.4567775e-09   -797.01468            0   -797.01468    13967.714 
     831 4.6804036e-09   -797.01468            0   -797.01468    13967.714 
     832 6.0034729e-09   -797.01468            0   -797.01468    13967.714 
     833 7.4732606e-09   -797.01468            0   -797.01468    13967.714 
     834 9.0927501e-09   -797.01468            0   -797.01468    13967.714 
     835 1.0857708e-08   -797.01468            0   -797.01468    13967.714 
     836 1.2763245e-08   -797.01468            0   -797.01468    13967.714 
     837 1.4804041e-08   -797.01468            0   -797.01468    13967.714 
     838 1.6974358e-08   -797.01468            0   -797.01468    13967.714 
     839 1.9268055e-08   -797.01468            0   -797.01468    13967.714 
     840 2.1678602e-08   -797.01468            0   -797.01468    13967.714 
     841 2.4199095e-08   -797.01468            0   -797.01468    13967.714 
     842 2.6822272e-08   -797.01468            0   -797.01468    13967.714 
     843 2.9540531e-08   -797.01468            0   -797.01468    13967.714 
     844 3.2345946e-08   -797.01468            0   -797.01468    13967.714 
     845 3.523029e-08   -797.01468            0   -797.01468    13967.714 
     846 3.8185051e-08   -797.01468            0   -797.01468    13967.714 
     847 4.1201454e-08   -797.01468            0   -797.01468    13967.714 
     848 4.4270482e-08   -797.01468            0   -797.01468    13967.713 
     849 4.7382907e-08   -797.01468            0   -797.01468    13967.713 
     850 5.0529289e-08   -797.01468            0   -797.01468    13967.713 
     851 5.3700045e-08   -797.01468            0   -797.01468    13967.713 
     852 5.6885398e-08   -797.01468            0   -797.01468    13967.713 
     853 6.0075535e-08   -797.01468            0   -797.01468    13967.713 
     854 6.3260374e-08   -797.01468            0   -797.01468    13967.713 
     855 6.6430117e-08   -797.01468            0   -797.01468    13967.713 
     856 6.9573931e-08   -797.01468            0   -797.01468    13967.713 
     857 7.2681489e-08   -797.01468            0   -797.01468    13967.713 
     858 7.5720228e-08   -797.01468            0   -797.01468    13967.713 
     859 7.8463438e-08   -797.01468            0   -797.01468    13967.712 
     860 7.7956567e-08   -797.01468            0   -797.01468    13967.712 
     861 4.7682282e-08   -797.01468            0   -797.01468    13967.712 
     862 1.4577076e-09   -797.01468            0   -797.01468    13967.712 
     863 2.9944907e-09   -797.01468            0   -797.01468    13967.712 
     864 3.9453966e-09   -797.01468            0   -797.01468    13967.712 
     865 4.8150292e-09   -797.01468            0   -797.01468    13967.712 
     866 5.7651226e-09   -797.01468            0   -797.01468    13967.712 
     867 6.7919592e-09   -797.01468            0   -797.01468    13967.712 
     868 7.8926519e-09   -797.01468            0   -797.01468    13967.712 
     869 9.0640264e-09   -797.01468            0   -797.01468    13967.712 
     870 1.0302678e-08   -797.01468            0   -797.01468    13967.712 
     871 1.1604985e-08   -797.01468            0   -797.01468    13967.712 
     872 1.2967121e-08   -797.01468            0   -797.01468    13967.712 
     873 1.4385059e-08   -797.01468            0   -797.01468    13967.712 
     874 1.5854584e-08   -797.01468            0   -797.01468    13967.712 
     875 1.7371306e-08   -797.01468            0   -797.01468    13967.712 
     876 1.8930665e-08   -797.01468            0   -797.01468    13967.712 
     877 2.0527952e-08   -797.01468            0   -797.01468    13967.712 
     878 2.2158311e-08   -797.01468            0   -797.01468    13967.712 
     879 2.381676e-08   -797.01468            0   -797.01468    13967.712 
     880 2.5498196e-08   -797.01468            0   -797.01468    13967.712 
     881 2.7197418e-08   -797.01468            0   -797.01468    13967.712 
     882 2.8909126e-08   -797.01468            0   -797.01468    13967.712 
     883 3.0627923e-08   -797.01468            0   -797.01468    13967.711 
     884 3.2348142e-08   -797.01468            0   -797.01468    13967.711 
     885 3.4062613e-08   -797.01468            0   -797.01468    13967.711 
     886 3.5751361e-08   -797.01468            0   -797.01468    13967.711 
     887 3.7277129e-08   -797.01468            0   -797.01468    13967.711 
     888 3.7345089e-08   -797.01468            0   -797.01468    13967.711 
     889 2.6165037e-08   -797.01468            0   -797.01468    13967.711 
     890 2.5861861e-09   -797.01468            0   -797.01468    13967.711 
     891 2.7049757e-09   -797.01468            0   -797.01468    13967.711 
     892 3.258468e-09   -797.01468            0   -797.01468    13967.711 
     893 3.8622698e-09   -797.01468            0   -797.01468    13967.711 
     894 4.5115282e-09   -797.01468            0   -797.01468    13967.711 
     895 5.2042636e-09   -797.01468            0   -797.01468    13967.711 
     896 5.9384214e-09   -797.01468            0   -797.01468    13967.711 
     897 6.7118215e-09   -797.01468            0   -797.01468    13967.711 
     898 7.5221532e-09   -797.01468            0   -797.01468    13967.711 
     899 8.3669847e-09   -797.01468            0   -797.01468    13967.711 
     900 9.2437659e-09   -797.01468            0   -797.01468    13967.711 
     901 1.0149838e-08   -797.01468            0   -797.01468    13967.711 
     902 1.1082436e-08   -797.01468            0   -797.01468    13967.711 
     903 1.2038705e-08   -797.01468            0   -797.01468    13967.711 
     904 1.3015692e-08   -797.01468            0   -797.01468    13967.711 
     905 1.4010364e-08   -797.01468            0   -797.01468    13967.711 
     906 1.5019577e-08   -797.01468            0   -797.01468    13967.711 
     907 1.6039994e-08   -797.01468            0   -797.01468    13967.711 
     908 1.7067364e-08   -797.01468            0   -797.01468    13967.711 
     909 1.8092636e-08   -797.01468            0   -797.01468    13967.711 
     910 1.9073795e-08   -797.01468            0   -797.01468    13967.711 
     911 1.9731964e-08   -797.01468            0   -797.01468     13967.71 
     912 1.8128105e-08   -797.01468            0   -797.01468     13967.71 
     913 8.0700959e-09   -797.01468            0   -797.01468     13967.71 
     914 9.2522328e-10   -797.01468            0   -797.01468     13967.71 
     915 1.4400251e-09   -797.01468            0   -797.01468     13967.71 
     916 1.7734482e-09   -797.01468            0   -797.01468     13967.71 
     917 2.1377292e-09   -797.01468            0   -797.01468     13967.71 
     918 2.5326929e-09   -797.01468            0   -797.01468     13967.71 
     919 2.9571714e-09   -797.01468            0   -797.01468     13967.71 
     920 3.4099016e-09   -797.01468            0   -797.01468     13967.71 
     921 3.8895291e-09   -797.01468            0   -797.01468     13967.71 
     922 4.3946107e-09   -797.01468            0   -797.01468     13967.71 
     923 4.9236187e-09   -797.01468            0   -797.01468     13967.71 
     924 5.4749448e-09   -797.01468            0   -797.01468     13967.71 
     925 6.0469046e-09   -797.01468            0   -797.01468     13967.71 
     926 6.6377422e-09   -797.01468            0   -797.01468     13967.71 
     927 7.2456343e-09   -797.01468            0   -797.01468     13967.71 
     928 7.8686965e-09   -797.01468            0   -797.01468     13967.71 
     929 8.5049869e-09   -797.01468            0   -797.01468     13967.71 
     930 9.1525129e-09   -797.01468            0   -797.01468     13967.71 
     931 9.8092353e-09   -797.01468            0   -797.01468     13967.71 
     932 1.0473076e-08   -797.01468            0   -797.01468     13967.71 
     933 1.114192e-08   -797.01468            0   -797.01468     13967.71 
     934 1.1813626e-08   -797.01468            0   -797.01468     13967.71 
     935 1.2485993e-08   -797.01468            0   -797.01468     13967.71 
     936 1.3156658e-08   -797.01468            0   -797.01468     13967.71 
     937 1.3821688e-08   -797.01468            0   -797.01468     13967.71 
     938 1.4463448e-08   -797.01468            0   -797.01468     13967.71 
     939 1.4924207e-08   -797.01468            0   -797.01468     13967.71 
     940 1.3673823e-08   -797.01468            0   -797.01468     13967.71 
     941 4.6594663e-09   -797.01468            0   -797.01468     13967.71 
     942 1.8161142e-10   -797.01468            0   -797.01468     13967.71 
     943 3.4162824e-10   -797.01468            0   -797.01468     13967.71 
     944 5.2483713e-10   -797.01468            0   -797.01468     13967.71 
     945 6.9210022e-10   -797.01468            0   -797.01468     13967.71 
     946 8.7045046e-10   -797.01468            0   -797.01468     13967.71 
     947 1.0674543e-09   -797.01468            0   -797.01468     13967.71 
     948 1.2828626e-09   -797.01468            0   -797.01468     13967.71 
     949 1.5160323e-09   -797.01468            0   -797.01468     13967.71 
     950 1.7662638e-09   -797.01468            0   -797.01468     13967.71 
     951 2.0328018e-09   -797.01468            0   -797.01468     13967.71 
     952 2.3148373e-09   -797.01468            0   -797.01468     13967.71 
     953 2.6115096e-09   -797.01468            0   -797.01468     13967.71 
     954 2.9219088e-09   -797.01468            0   -797.01468     13967.71 
     955 3.2450784e-09   -797.01468            0   -797.01468     13967.71 
     956 3.5800179e-09   -797.01468            0   -797.01468     13967.71 
     957 3.9256849e-09   -797.01468            0   -797.01468     13967.71 
     958 4.2809999e-09   -797.01468            0   -797.01468     13967.71 
     959 4.6448463e-09   -797.01468            0   -797.01468     13967.71 
     960 5.0160775e-09   -797.01468            0   -797.01468     13967.71 
     961 5.3935152e-09   -797.01468            0   -797.01468    13967.709 
     962 5.7759594e-09   -797.01468            0   -797.01468    13967.709 
     963 6.1621821e-09   -797.01468            0   -797.01468    13967.709 
     964 6.5509465e-09   -797.01468            0   -797.01468    13967.709 
     965 6.9409831e-09   -797.01468            0   -797.01468    13967.709 
     966 7.3310455e-09   -797.01468            0   -797.01468    13967.709 
     967 7.7198055e-09   -797.01468            0   -797.01468    13967.709 
     968  8.10608e-09   -797.01468            0   -797.01468    13967.709 
     969 8.4881498e-09   -797.01468            0   -797.01468    13967.709 
     970 8.8638514e-09   -797.01468            0   -797.01468    13967.709 
     971 9.2111303e-09   -797.01468            0   -797.01468    13967.709 
     972 9.3056858e-09   -797.01468            0   -797.01468    13967.709 
     973 6.820483e-09   -797.01468            0   -797.01468    13967.709 
     974 5.2124885e-10   -797.01468            0   -797.01468    13967.709 
     975 5.7113565e-10   -797.01468            0   -797.01468    13967.709 
     976 6.8927087e-10   -797.01468            0   -797.01468    13967.709 
     977 8.1759629e-10   -797.01468            0   -797.01468    13967.709 
     978 9.5556744e-10   -797.01468            0   -797.01468    13967.709 
     979 1.1027603e-09   -797.01468            0   -797.01468    13967.709 
     980 1.2587225e-09   -797.01468            0   -797.01468    13967.709 
     981 1.4229737e-09   -797.01468            0   -797.01468    13967.709 
     982 1.5950049e-09   -797.01468            0   -797.01468    13967.709 
     983 1.774281e-09   -797.01468            0   -797.01468    13967.709 
     984 1.9602415e-09   -797.01468            0   -797.01468    13967.709 
     985 2.1523026e-09   -797.01468            0   -797.01468    13967.709 
     986 2.3498583e-09   -797.01468            0   -797.01468    13967.709 
     987 2.5522833e-09   -797.01468            0   -797.01468    13967.709 
     988 2.7589327e-09   -797.01468            0   -797.01468    13967.709 
     989 2.9691468e-09   -797.01468            0   -797.01468    13967.709 
     990 3.1822459e-09   -797.01468            0   -797.01468    13967.709 
     991 3.3975387e-09   -797.01468            0   -797.01468    13967.709 
     992 3.6142617e-09   -797.01468            0   -797.01468    13967.709 
     993 3.8314145e-09   -797.01468            0   -797.01468    13967.709 
     994 4.046016e-09   -797.01468            0   -797.01468    13967.709 
     995 4.2409419e-09   -797.01468            0   -797.01468    13967.709 
     996 4.2810654e-09   -797.01468            0   -797.01468    13967.709 
     997 3.2726099e-09   -797.01468            0   -797.01468    13967.709 
     998 6.0199729e-10   -797.01468            0   -797.01468    13967.709 
     999 2.6774855e-10   -797.01468            0   -797.01468    13967.709 
    1000 3.3770658e-10   -797.01468            0   -797.01468    13967.709 
    1001 4.1054208e-10   -797.01468            0   -797.01468    13967.709 
    1002 4.8985678e-10   -797.01468            0   -797.01468    13967.709 
    1003 5.7538343e-10   -797.01468            0   -797.01468    13967.709 
    1004 6.6685988e-10   -797.01468            0   -797.01468    13967.709 
    1005 7.6400404e-10   -797.01468            0   -797.01468    13967.709 
    1006 8.6651509e-10   -797.01468            0   -797.01468    13967.709 
    1007 9.7407376e-10   -797.01468            0   -797.01468    13967.709 
    1008 1.0863437e-09   -797.01468            0   -797.01468    13967.709 
    1009 1.2029722e-09   -797.01468            0   -797.01468    13967.709 
    1010 1.3235913e-09   -797.01468            0   -797.01468    13967.709 
    1011 1.4478187e-09   -797.01468            0   -797.01468    13967.709 
    1012 1.5752591e-09   -797.01468            0   -797.01468    13967.709 
    1013 1.7055052e-09   -797.01468            0   -797.01468    13967.709 
    1014 1.8381388e-09   -797.01468            0   -797.01468    13967.709 
    1015 1.9727326e-09   -797.01468            0   -797.01468    13967.709 
    1016 2.1088496e-09   -797.01468            0   -797.01468    13967.709 
    1017 2.2460449e-09   -797.01468            0   -797.01468    13967.709 
    1018 2.3838537e-09   -797.01468            0   -797.01468    13967.709 
    1019 2.5217189e-09   -797.01468            0   -797.01468    13967.709 
    1020 2.6584174e-09   -797.01468            0   -797.01468    13967.709 
    1021 2.7872023e-09   -797.01468            0   -797.01468    13967.709 
    1022 2.852105e-09   -797.01468            0   -797.01468    13967.709 
[...]
    2065 7.2813925e-18   -797.01468            0   -797.01468    13967.708 
    2066 7.8070757e-18   -797.01468            0   -797.01468    13967.708 
    2067 8.5329486e-18   -797.01468            0   -797.01468    13967.708 
    2068 9.7918982e-18   -797.01468            0   -797.01468    13967.708 
    2069 1.577496e-17   -797.01468            0   -797.01468    13967.708 
    2070 5.3819032e-17   -797.01468            0   -797.01468    13967.708 
    2071 3.6909901e-16   -797.01468            0   -797.01468    13967.708 
    2072 3.2761456e-15   -797.01468            0   -797.01468    13967.708 
    2073 3.3454112e-14   -797.01468            0   -797.01468    13967.708 
    2074 3.5873727e-13   -797.01468            0   -797.01468    13967.708 
    2075 1.9850363e-12   -797.01468            0   -797.01468    13967.708 
    2076 1.2803149e-13   -797.01468            0   -797.01468    13967.708 
    2077 1.1401653e-13   -797.01468            0   -797.01468    13967.708 
    2078 4.7576598e-14   -797.01468            0   -797.01468    13967.708 
    2079 6.0849804e-15   -797.01468            0   -797.01468    13967.708 
    2080 2.3542418e-16   -797.01468            0   -797.01468    13967.708 
    2081 2.0690734e-18   -797.01468            0   -797.01468    13967.708 
    2082 8.3741126e-19   -797.01468            0   -797.01468    13967.708 
    2083 9.9048865e-19   -797.01468            0   -797.01468    13967.708 
    2084 1.157802e-18   -797.01468            0   -797.01468    13967.708 
    2085 1.3371023e-18   -797.01468            0   -797.01468    13967.708 
    2086 1.5281275e-18   -797.01468            0   -797.01468    13967.708 
    2087 1.7303185e-18   -797.01468            0   -797.01468    13967.708 
    2088 1.9447311e-18   -797.01468            0   -797.01468    13967.708 
    2089 2.1681925e-18   -797.01468            0   -797.01468    13967.708 
    2090 2.4044575e-18   -797.01468            0   -797.01468    13967.708 
    2091 2.6483293e-18   -797.01468            0   -797.01468    13967.708 
    2092 2.9044389e-18   -797.01468            0   -797.01468    13967.708 
    2093 3.168058e-18   -797.01468            0   -797.01468    13967.708 
    2094 3.4436998e-18   -797.01468            0   -797.01468    13967.708 
    2095 3.722016e-18   -797.01468            0   -797.01468    13967.708 
    2096 4.0212063e-18   -797.01468            0   -797.01468    13967.708 
    2097 4.3169843e-18   -797.01468            0   -797.01468    13967.708 
    2098 4.6962844e-18   -797.01468            0   -797.01468    13967.708 
    2099 5.2441681e-18   -797.01468            0   -797.01468    13967.708 
    2100 7.4614692e-18   -797.01468            0   -797.01468    13967.708 
    2101 2.0529435e-17   -797.01468            0   -797.01468    13967.708 
    2102 1.2774534e-16   -797.01468            0   -797.01468    13967.708 
    2103 1.1102772e-15   -797.01468            0   -797.01468    13967.708 
    2104 1.1348982e-14   -797.01468            0   -797.01468    13967.708 
    2105 1.3019087e-13   -797.01468            0   -797.01468    13967.708 
    2106 1.5800215e-12   -797.01468            0   -797.01468    13967.708 
    2107 1.0204214e-11   -797.01468            0   -797.01468    13967.708 
    2108 4.9781126e-13   -797.01468            0   -797.01468    13967.708 
    2109 5.2937146e-13   -797.01468            0   -797.01468    13967.708 
    2110 3.3121191e-13   -797.01468            0   -797.01468    13967.708 
    2111 7.7233257e-14   -797.01468            0   -797.01468    13967.708 
    2112 5.8799415e-15   -797.01468            0   -797.01468    13967.708 
    2113 1.1559941e-16   -797.01468            0   -797.01468    13967.708 
    2114 5.9175417e-19   -797.01468            0   -797.01468    13967.708 
    2115 4.9096687e-19   -797.01468            0   -797.01468    13967.708 
    2116 5.7865301e-19   -797.01468            0   -797.01468    13967.708 
    2117 6.7321888e-19   -797.01468            0   -797.01468    13967.708 
    2118 7.7496996e-19   -797.01468            0   -797.01468    13967.708 
    2119 8.8300443e-19   -797.01468            0   -797.01468    13967.708 
    2120 9.9728222e-19   -797.01468            0   -797.01468    13967.708 
    2121 1.1181453e-18   -797.01468            0   -797.01468    13967.708 
    2122 1.2444977e-18   -797.01468            0   -797.01468    13967.708 
    2123 1.3773812e-18   -797.01468            0   -797.01468    13967.708 
    2124 1.515013e-18   -797.01468            0   -797.01468    13967.708 
    2125 1.6590828e-18   -797.01468            0   -797.01468    13967.708 
    2126 1.807325e-18   -797.01468            0   -797.01468    13967.708 
    2127 1.9620283e-18   -797.01468            0   -797.01468    13967.708 
    2128 2.1204391e-18   -797.01468            0   -797.01468    13967.708 
    2129 2.2882617e-18   -797.01468            0   -797.01468    13967.708 
    2130 2.4581014e-18   -797.01468            0   -797.01468    13967.708 
    2131 2.6711096e-18   -797.01468            0   -797.01468    13967.708 
    2132 3.0118283e-18   -797.01468            0   -797.01468    13967.708 
    2133 4.3181465e-18   -797.01468            0   -797.01468    13967.708 
    2134 1.2307076e-17   -797.01468            0   -797.01468    13967.708 
    2135 7.6521766e-17   -797.01468            0   -797.01468    13967.708 
    2136 6.680439e-16   -797.01468            0   -797.01468    13967.708 
    2137 6.848164e-15   -797.01468            0   -797.01468    13967.708 
    2138 7.6181687e-14   -797.01468            0   -797.01468    13967.708 
    2139 5.2991947e-13   -797.01468            0   -797.01468    13967.708 
    2140 6.1479645e-14   -797.01468            0   -797.01468    13967.708 
    2141 4.0460719e-14   -797.01468            0   -797.01468    13967.708 
    2142 6.2883694e-15   -797.01468            0   -797.01468    13967.708 
    2143 1.7108098e-16   -797.01468            0   -797.01468    13967.708 
    2144 9.0572401e-19   -797.01468            0   -797.01468    13967.708 
    2145 2.7598387e-19   -797.01468            0   -797.01468    13967.708 
    2146 3.2494452e-19   -797.01468            0   -797.01468    13967.708 
    2147 3.7838092e-19   -797.01468            0   -797.01468    13967.708 
    2148 4.3570344e-19   -797.01468            0   -797.01468    13967.708 
    2149 4.9662277e-19   -797.01468            0   -797.01468    13967.708 
    2150 5.6109441e-19   -797.01468            0   -797.01468    13967.708 
    2151 6.2974738e-19   -797.01468            0   -797.01468    13967.708 
    2152 7.010107e-19   -797.01468            0   -797.01468    13967.708 
    2153 7.7612987e-19   -797.01468            0   -797.01468    13967.708 
    2154 8.5512209e-19   -797.01468            0   -797.01468    13967.708 
    2155 9.3552233e-19   -797.01468            0   -797.01468    13967.708 
    2156 1.0210587e-18   -797.01468            0   -797.01468    13967.708 
    2157 1.107564e-18   -797.01468            0   -797.01468    13967.708 
    2158 1.2010228e-18   -797.01468            0   -797.01468    13967.708 
    2159 1.2934421e-18   -797.01468            0   -797.01468    13967.708 
    2160 1.4092658e-18   -797.01468            0   -797.01468    13967.708 
    2161 1.5736943e-18   -797.01468            0   -797.01468    13967.708 
    2162 2.1477951e-18   -797.01468            0   -797.01468    13967.708 
    2163 5.2738735e-18   -797.01468            0   -797.01468    13967.708 
    2164 2.932967e-17   -797.01468            0   -797.01468    13967.708 
    2165 2.3873491e-16   -797.01468            0   -797.01468    13967.708 
    2166 2.2975502e-15   -797.01468            0   -797.01468    13967.708 
    2167 2.1919052e-14   -797.01468            0   -797.01468    13967.708 
    2168 6.2131982e-14   -797.01468            0   -797.01468    13967.708 
    2169 1.6790183e-15   -797.01468            0   -797.01468    13967.708 
    2170 1.8162621e-15   -797.01468            0   -797.01468    13967.708 
    2171 1.1943114e-15   -797.01468            0   -797.01468    13967.708 
    2172 3.7459947e-16   -797.01468            0   -797.01468    13967.708 
    2173 5.1769154e-17   -797.01468            0   -797.01468    13967.708 
    2174 2.8655127e-18   -797.01468            0   -797.01468    13967.708 
    2175 1.4922352e-19   -797.01468            0   -797.01468    13967.708 
    2176 1.4256503e-19   -797.01468            0   -797.01468    13967.708 
    2177 1.7010892e-19   -797.01468            0   -797.01468    13967.708 
    2178 1.9992025e-19   -797.01468            0   -797.01468    13967.708 
    2179 2.3201824e-19   -797.01468            0   -797.01468    13967.708 
    2180 2.6598287e-19   -797.01468            0   -797.01468    13967.708 
    2181 3.0269399e-19   -797.01468            0   -797.01468    13967.708 
    2182 3.4106849e-19   -797.01468            0   -797.01468    13967.708 
    2183 3.8188089e-19   -797.01468            0   -797.01468    13967.708 
    2184 4.2459899e-19   -797.01468            0   -797.01468    13967.708 
    2185 4.6888008e-19   -797.01468            0   -797.01468    13967.708 
    2186 5.1585352e-19   -797.01468            0   -797.01468    13967.708 
    2187 5.6364494e-19   -797.01468            0   -797.01468    13967.708 
    2188 6.1575157e-19   -797.01468            0   -797.01468    13967.708 
    2189 6.6583338e-19   -797.01468            0   -797.01468    13967.708 
    2190 7.2755835e-19   -797.01468            0   -797.01468    13967.708 
    2191 7.8600904e-19   -797.01468            0   -797.01468    13967.708 
    2192 9.2243301e-19   -797.01468            0   -797.01468    13967.708 
    2193 1.3082075e-18   -797.01468            0   -797.01468    13967.708 
    2194 3.8392688e-18   -797.01468            0   -797.01468    13967.708 
    2195 2.1867313e-17   -797.01468            0   -797.01468    13967.708 
    2196 1.7898993e-16   -797.01468            0   -797.01468    13967.708 
    2197 1.7094078e-15   -797.01468            0   -797.01468    13967.708 
    2198 1.8624472e-14   -797.01468            0   -797.01468    13967.708 
    2199 2.2754986e-13   -797.01468            0   -797.01468    13967.708 
    2200 2.8790093e-12   -797.01468            0   -797.01468    13967.708 
    2201 1.4236537e-11   -797.01468            0   -797.01468    13967.708 
    2202 1.0478534e-13   -797.01468            0   -797.01468    13967.708 
    2203 2.1459993e-13   -797.01468            0   -797.01468    13967.708 
    2204 3.1594962e-13   -797.01468            0   -797.01468    13967.708 
    2205 3.3230359e-13   -797.01468            0   -797.01468    13967.708 
    2206 2.0795904e-13   -797.01468            0   -797.01468    13967.708 
    2207 6.1056041e-14   -797.01468            0   -797.01468    13967.708 
    2208 7.7041025e-15   -797.01468            0   -797.01468    13967.708 
    2209 3.5131235e-16   -797.01468            0   -797.01468    13967.708 
    2210 2.8474263e-18   -797.01468            0   -797.01468    13967.708 
    2211 8.7904174e-20   -797.01468            0   -797.01468    13967.708 
    2212 9.3503229e-20   -797.01468            0   -797.01468    13967.708 
    2213 1.0974995e-19   -797.01468            0   -797.01468    13967.708 
    2214 1.2733073e-19   -797.01468            0   -797.01468    13967.708 
    2215 1.4621535e-19   -797.01468            0   -797.01468    13967.708 
    2216 1.6614393e-19   -797.01468            0   -797.01468    13967.708 
    2217 1.8742639e-19   -797.01468            0   -797.01468    13967.708 
    2218 2.0971667e-19   -797.01468            0   -797.01468    13967.708 
    2219 2.3343611e-19   -797.01468            0   -797.01468    13967.708 
    2220 2.5778744e-19   -797.01468            0   -797.01468    13967.708 
    2221 2.8395504e-19   -797.01468            0   -797.01468    13967.708 
    2222  3.10365e-19   -797.01468            0   -797.01468    13967.708 
    2223 3.3887742e-19   -797.01468            0   -797.01468    13967.708 
    2224 3.6750797e-19   -797.01468            0   -797.01468    13967.708 
    2225 4.0227427e-19   -797.01468            0   -797.01468    13967.708 
    2226 4.4602468e-19   -797.01468            0   -797.01468    13967.708 
    2227 5.7178579e-19   -797.01468            0   -797.01468    13967.708 
    2228 1.1369974e-18   -797.01468            0   -797.01468    13967.708 
    2229 5.065198e-18   -797.01468            0   -797.01468    13967.708 
    2230 3.6383862e-17   -797.01468            0   -797.01468    13967.708 
    2231 3.2527379e-16   -797.01468            0   -797.01468    13967.708 
    2232 3.3342486e-15   -797.01468            0   -797.01468    13967.708 
    2233 3.8698745e-14   -797.01468            0   -797.01468    13967.708 
    2234 5.0226709e-13   -797.01468            0   -797.01468    13967.708 
    2235 6.5361907e-12   -797.01468            0   -797.01468    13967.708 
    2236 2.368338e-11   -797.01468            0   -797.01468    13967.708 
    2237 8.3388609e-14   -797.01468            0   -797.01468    13967.708 
    2238 2.2424296e-13   -797.01468            0   -797.01468    13967.708 
    2239 3.8192936e-13   -797.01468            0   -797.01468    13967.708 
    2240 4.5814661e-13   -797.01468            0   -797.01468    13967.708 
    2241 3.4957362e-13   -797.01468            0   -797.01468    13967.708 
    2242 1.3857186e-13   -797.01468            0   -797.01468    13967.708 
    2243 2.5187888e-14   -797.01468            0   -797.01468    13967.708 
    2244 1.8640456e-15   -797.01468            0   -797.01468    13967.708 
    2245 3.5007833e-17   -797.01468            0   -797.01468    13967.708 
    2246 7.5088974e-20   -797.01468            0   -797.01468    13967.708 
    2247 4.6739847e-20   -797.01468            0   -797.01468    13967.708 
    2248 5.5166856e-20   -797.01468            0   -797.01468    13967.708 
    2249 6.4370247e-20   -797.01468            0   -797.01468    13967.708 
    2250 7.4334445e-20   -797.01468            0   -797.01468    13967.708 
    2251 8.508658e-20   -797.01468            0   -797.01468    13967.708 
    2252 9.6321469e-20   -797.01468            0   -797.01468    13967.708 
    2253 1.0828773e-19   -797.01468            0   -797.01468    13967.708 
    2254 1.209109e-19   -797.01468            0   -797.01468    13967.708 
    2255 1.3396023e-19   -797.01468            0   -797.01468    13967.708 
    2256 1.4797965e-19   -797.01468            0   -797.01468    13967.708 
    2257 1.6223893e-19   -797.01468            0   -797.01468    13967.708 
    2258 1.7756596e-19   -797.01468            0   -797.01468    13967.708 
    2259 1.9341344e-19   -797.01468            0   -797.01468    13967.708 
    2260 2.109799e-19   -797.01468            0   -797.01468    13967.708 
    2261 2.3358343e-19   -797.01468            0   -797.01468    13967.708 
    2262 2.8138248e-19   -797.01468            0   -797.01468    13967.708 
    2263 4.7282534e-19   -797.01468            0   -797.01468    13967.708 
    2264 1.6262447e-18   -797.01468            0   -797.01468    13967.708 
    2265 1.0165198e-17   -797.01468            0   -797.01468    13967.708 
    2266 8.2646358e-17   -797.01468            0   -797.01468    13967.708 
    2267 7.8297748e-16   -797.01468            0   -797.01468    13967.708 
    2268 8.4223727e-15   -797.01468            0   -797.01468    13967.708 
    2269 1.0229281e-13   -797.01468            0   -797.01468    13967.708 
    2270 1.3835198e-12   -797.01468            0   -797.01468    13967.708 
    2271 1.7731984e-11   -797.01468            0   -797.01468    13967.708 
    2272 3.4731281e-11   -797.01468            0   -797.01468    13967.708 
    2273 4.3301463e-13   -797.01468            0   -797.01468    13967.708 
    2274 5.4159708e-13   -797.01468            0   -797.01468    13967.708 
    2275 4.3224074e-13   -797.01468            0   -797.01468    13967.708 
    2276 1.8948021e-13   -797.01468            0   -797.01468    13967.708 
    2277 4.1254315e-14   -797.01468            0   -797.01468    13967.708 
    2278 4.0196882e-15   -797.01468            0   -797.01468    13967.708 
    2279 1.2298327e-16   -797.01468            0   -797.01468    13967.708 
    2280 2.9730542e-19   -797.01468            0   -797.01468    13967.708 
    2281 2.5530644e-20   -797.01468            0   -797.01468    13967.708 
    2282 2.8712181e-20   -797.01468            0   -797.01468    13967.708 
    2283 3.3510788e-20   -797.01468            0   -797.01468    13967.708 
    2284 3.8832215e-20   -797.01468            0   -797.01468    13967.708 
    2285 4.4511084e-20   -797.01468            0   -797.01468    13967.708 
    2286 5.052298e-20   -797.01468            0   -797.01468    13967.708 
    2287 5.6875112e-20   -797.01468            0   -797.01468    13967.708 
    2288 6.3679478e-20   -797.01468            0   -797.01468    13967.708 
    2289 7.0670271e-20   -797.01468            0   -797.01468    13967.708 
    2290 7.8210328e-20   -797.01468            0   -797.01468    13967.708 
    2291 8.5750143e-20   -797.01468            0   -797.01468    13967.708 
    2292 9.4118926e-20   -797.01468            0   -797.01468    13967.708 
    2293 1.0239846e-19   -797.01468            0   -797.01468    13967.708 
    2294 1.125347e-19   -797.01468            0   -797.01468    13967.708 
    2295 1.2470436e-19   -797.01468            0   -797.01468    13967.708 
    2296 1.5362101e-19   -797.01468            0   -797.01468    13967.708 
    2297 2.6313467e-19   -797.01468            0   -797.01468    13967.708 
    2298 9.4163891e-19   -797.01468            0   -797.01468    13967.708 
    2299 5.8464469e-18   -797.01468            0   -797.01468    13967.708 
    2300 4.7520584e-17   -797.01468            0   -797.01468    13967.708 
    2301 4.4976485e-16   -797.01468            0   -797.01468    13967.708 
    2302 4.8644966e-15   -797.01468            0   -797.01468    13967.708 
    2303 5.9677901e-14   -797.01468            0   -797.01468    13967.708 
    2304 8.2778004e-13   -797.01468            0   -797.01468    13967.708 
    2305 1.2913528e-11   -797.01468            0   -797.01468    13967.708 
    2306 2.1577168e-10   -797.01468            0   -797.01468    13967.708 
    2307 1.7958699e-09   -797.01468            0   -797.01468    13967.707 
    2308 4.0812257e-12   -797.01468            0   -797.01468    13967.707 
Loop time of 421.229 on 16 procs for 842 steps with 127 atoms

99.2% CPU use with 16 MPI tasks x no OpenMP threads

Minimization stats:
  Stopping criterion = energy tolerance
  Energy initial, next-to-last, final = 
        -797.014675018     -797.014675018     -797.014675018
  Force two-norm initial, final = 1.56621e-07 9.95005e-06
  Force max component initial, final = 3.61983e-08 2.61057e-06
  Final line search alpha, max atom move = 0 0
  Iterations, force evaluations = 842 842

MPI task timing breakdown:
Section |  min time  |  avg time  |  max time  |%varavg| %total
---------------------------------------------------------------
Pair    | 248.36     | 283.03     | 358.8      | 137.8 | 67.19
Neigh   | 0          | 0          | 0          |   0.0 |  0.00
Comm    | 49.035     | 124.81     | 159.48     | 207.5 | 29.63
Output  | 0.15267    | 0.15388    | 0.15551    |   0.2 |  0.04
Modify  | 3.0081     | 3.009      | 3.0097     |   0.0 |  0.71
Other   |            | 10.23      |            |       |  2.43

Nlocal:    7.9375 ave 8 max 7 min
Histogram: 1 0 0 0 0 0 0 0 0 15
Nghost:    817.062 ave 821 max 816 min
Histogram: 12 0 0 0 0 0 0 0 3 1
Neighs:    0 ave 0 max 0 min
Histogram: 16 0 0 0 0 0 0 0 0 0
FullNghs:  1602.5 ave 1628 max 1402 min
Histogram: 1 0 0 0 0 0 0 0 2 13

Total # of neighbors = 25640
Ave neighs/atom = 201.89
Neighbor list builds = 0
Dangerous builds = 0
Total wall time: 0:19:23
