LAMMPS (12 Dec 2018)
Processor partition = 6
Reading data file ...
  orthogonal box = (0 0 0) to (10.0025 12.3537 10.615)
  2 by 4 by 2 MPI processor grid
  reading atoms ...
  127 atoms
Reading potential file lammps-force.nnp with DATE: 20201105
Neighbor list info ...
  update every 1 steps, delay 0 steps, check yes
  max neighbors/atom: 2000, page size: 100000
  master list distance cutoff = 8
  ghost atom cutoff = 8
  binsize = 4, bins = 3 4 3
  1 neighbor lists, perpetual/occasional/extra = 1 0 0
  (1) pair nnp3v, perpetual
      attributes: full, newton on
      pair build: full/bin/atomonly
      stencil: full/bin/3d
      bin: standard
Setting up quickmin style minimization ...
  Unit style    : metal
  Current step  : 0
Per MPI rank memory allocation (min/avg/max) = 2.736 | 2.736 | 2.736 Mbytes
Step Temp E_pair E_mol TotEng Press 
       0            0   -796.68047            0   -796.68047     13401.66 
       6  0.092325754   -796.68154            0   -796.68004    13408.421 
Loop time of 2.24688 on 16 procs for 6 steps with 127 atoms

98.7% CPU use with 16 MPI tasks x no OpenMP threads

Minimization stats:
  Stopping criterion = energy tolerance
  Energy initial, next-to-last, final = 
        -796.680469343     -796.681189813     -796.681544239
  Force two-norm initial, final = 0.292034 0.283352
  Force max component initial, final = 0.0445202 0.0435203
  Final line search alpha, max atom move = 0 0
  Iterations, force evaluations = 6 6

MPI task timing breakdown:
Section |  min time  |  avg time  |  max time  |%varavg| %total
---------------------------------------------------------------
Pair    | 1.9064     | 2.1579     | 2.2459     |   5.1 | 96.04
Neigh   | 0          | 0          | 0          |   0.0 |  0.00
Comm    | 0.00057769 | 0.088571   | 0.34008    |  25.4 |  3.94
Output  | 0          | 0          | 0          |   0.0 |  0.00
Modify  | 0          | 0          | 0          |   0.0 |  0.00
Other   |            | 0.0004231  |            |       |  0.02

Nlocal:    7.9375 ave 8 max 7 min
Histogram: 1 0 0 0 0 0 0 0 0 15
Nghost:    819.812 ave 824 max 816 min
Histogram: 4 0 0 0 0 8 0 1 1 2
Neighs:    0 ave 0 max 0 min
Histogram: 16 0 0 0 0 0 0 0 0 0
FullNghs:  1602 ave 1623 max 1420 min
Histogram: 1 0 0 0 0 0 0 0 1 14

Total # of neighbors = 25632
Ave neighs/atom = 201.827
Neighbor list builds = 0
Dangerous builds = 0
Setting up quickmin style minimization ...
  Unit style    : metal
  Current step  : 0
Per MPI rank memory allocation (min/avg/max) = 4.736 | 4.737 | 4.737 Mbytes
Step Temp E_pair E_mol TotEng Press 
       0            0   -796.07769            0   -796.07769    15254.272 
       1   0.55370492   -796.07769            0   -796.06867    15261.616 
       2    3.3918193   -796.10192            0   -796.04667    15242.793 
       3    9.6098249   -796.15047            0   -795.99396    15215.458 
       4    21.157444   -796.22203            0   -795.87745    15217.158 
       5    38.528564   -796.30954            0   -795.68203    15277.782 
       6    57.018321   -796.40101            0   -795.47237    15337.992 
       7    75.364219   -796.48756            0   -795.26012    15337.531 
       8    88.635494   -796.56253            0   -795.11895    15243.873 
       9    96.687374   -796.62406            0   -795.04933    15182.081 
      10    103.08216   -796.67352            0   -794.99464    15212.616 
      11    73.554629   -796.70574            0   -795.50777    14801.828 
      12   0.72122636   -796.70831            0   -796.69656    13834.494 
      13    1.1702845   -796.71162            0   -796.69256    13841.063 
      14    1.8986453    -796.7159            0   -796.68498    13853.901 
      15    2.4489208   -796.72073            0   -796.68084     13865.55 
      16    2.8995173   -796.72586            0   -796.67864    13875.731 
      17    3.3796681   -796.73124            0   -796.67619    13886.563 
      18    3.8782668    -796.7368            0   -796.67363     13898.42 
      19    4.3873615   -796.74249            0   -796.67104    13911.424 
      20    4.9004932   -796.74826            0   -796.66844    13925.678 
      21    5.4114243   -796.75404            0   -796.66591    13941.212 
      22    5.9141902    -796.7598            0   -796.66348    13957.988 
      23    6.4033615   -796.76548            0   -796.66119    13975.957 
      24    6.8743286   -796.77105            0   -796.65909    13995.014 
      25    7.3235402   -796.77646            0   -796.65719    14015.042 
      26    7.7487452    -796.7817            0    -796.6555    14035.953 
      27    8.1492529   -796.78673            0   -796.65401    14057.642 
      28    8.5259126   -796.79155            0   -796.65269    14079.936 
      29    8.8803108   -796.79614            0    -796.6515    14102.711 
      30    9.2160368   -796.80049            0   -796.65039    14125.749 
      31    9.5347004   -796.80461            0   -796.64932    14149.046 
      32    9.8442912   -796.80849            0   -796.64816    14171.827 
      33    10.119021   -796.81214            0   -796.64734    14195.871 
      34    10.235578   -796.81552            0   -796.64881    14209.466 
      35     7.069813   -796.81783            0   -796.70269    14204.464 
      36  0.087348681   -796.81812            0   -796.81669    14107.054 
      37   0.12136331   -796.81843            0   -796.81645     14103.09 
      38    0.1642504   -796.81878            0   -796.81611     14101.06 
      39   0.20415998   -796.81918            0   -796.81586    14101.802 
      40    0.2435828   -796.81962            0   -796.81565    14104.261 
      41   0.28785097   -796.82009            0    -796.8154    14107.388 
      42   0.33579183    -796.8206            0   -796.81513    14110.801 
      43   0.38692269   -796.82114            0   -796.81484    14114.427 
      44   0.44102427   -796.82171            0   -796.81453    14118.253 
      45   0.49792662   -796.82231            0    -796.8142    14122.266 
      46    0.5574598   -796.82293            0   -796.81386    14126.452 
      47   0.61945017   -796.82359            0    -796.8135    14130.795 
      48   0.68372117   -796.82426            0   -796.81312    14135.274 
      49   0.75009482   -796.82495            0   -796.81274    14139.865 
      50   0.81839404   -796.82566            0   -796.81234    14144.552 
      51   0.88843938   -796.82639            0   -796.81192     14149.31 
      52   0.96005766   -796.82714            0    -796.8115    14154.117 
      53    1.0330774   -796.82789            0   -796.81106    14158.949 
      54    1.1073285   -796.82866            0   -796.81062    14163.795 
      55    1.1826335   -796.82943            0   -796.81017    14168.625 
      56    1.2588303   -796.83021            0   -796.80971    14173.411 
      57    1.3357765     -796.831            0   -796.80924    14178.127 
      58    1.4133168   -796.83179            0   -796.80877     14182.75 
      59    1.4913263   -796.83258            0   -796.80829    14187.251 
      60    1.5696504   -796.83337            0   -796.80781    14191.606 
      61    1.6481958   -796.83416            0   -796.80732    14195.778 
      62    1.7267455   -796.83495            0   -796.80683    14199.779 
      63    1.8054498   -796.83574            0   -796.80634    14203.476 
      64    1.8835141   -796.83653            0   -796.80585    14207.166 
      65    1.9629557   -796.83731            0   -796.80534    14209.803 
      66    2.0378429   -796.83808            0   -796.80489    14214.886 
      67     2.138735   -796.83882            0   -796.80398     14209.72 
      68    2.1545305   -796.83922            0   -796.80413    14237.955 
      69   0.25648384   -796.83954            0   -796.83536    14198.532 
      70   0.13415852   -796.83971            0   -796.83752    14190.719 
      71   0.10004479   -796.83986            0   -796.83823    14190.553 
      72   0.11478907   -796.84003            0   -796.83816    14190.958 
      73   0.13053349    -796.8402            0   -796.83807    14191.362 
      74   0.14716018   -796.84039            0   -796.83799    14191.756 
      75   0.16464509   -796.84058            0    -796.8379    14192.146 
      76   0.18295496   -796.84079            0   -796.83781    14192.527 
      77   0.20205841     -796.841            0   -796.83771    14192.897 
      78   0.22192151   -796.84122            0   -796.83761     14193.25 
      79    0.2425104   -796.84145            0    -796.8375    14193.584 
      80   0.26378928   -796.84169            0    -796.8374    14193.891 
      81   0.28572223   -796.84194            0   -796.83729    14194.169 
      82   0.30827215    -796.8422            0   -796.83718     14194.41 
      83   0.33140179   -796.84246            0   -796.83707    14194.608 
      84   0.35507234   -796.84273            0   -796.83695    14194.759 
      85   0.37924641   -796.84301            0   -796.83683    14194.859 
      86   0.40388345   -796.84329            0   -796.83672    14194.899 
      87   0.42894607   -796.84358            0    -796.8366     14194.88 
      88   0.45439035   -796.84388            0   -796.83648    14194.786 
      89   0.48018401   -796.84418            0   -796.83636    14194.634 
      90   0.50626655   -796.84449            0   -796.83624    14194.363 
      91   0.53262705    -796.8448            0   -796.83612    14194.101 
      92   0.55904671   -796.84512            0   -796.83601    14193.502 
      93   0.58511782   -796.84544            0   -796.83591    14193.496 
      94   0.60484077   -796.84575            0    -796.8359    14191.266 
      95   0.57257706   -796.84604            0   -796.83671    14194.366 
      96   0.25535709   -796.84619            0   -796.84203    14183.017 
      97   0.02331333   -796.84625            0   -796.84587     14181.63 
      98   0.02344788    -796.8463            0   -796.84592     14182.48 
      99  0.026262219   -796.84637            0   -796.84594    14182.621 
     100  0.031276161   -796.84643            0   -796.84593    14182.499 
     101  0.036958813   -796.84651            0   -796.84591    14182.303 
     102  0.043096837   -796.84659            0   -796.84589    14182.078 
     103  0.049672532   -796.84668            0   -796.84587    14181.829 
     104  0.056675818   -796.84677            0   -796.84585    14181.554 
     105  0.064096124   -796.84687            0   -796.84583    14181.253 
     106  0.071922214   -796.84697            0    -796.8458    14180.925 
     107  0.080142243   -796.84709            0   -796.84578    14180.568 
     108   0.08874376    -796.8472            0   -796.84576    14180.181 
     109  0.097713709   -796.84732            0   -796.84573    14179.763 
     110   0.10703849   -796.84745            0   -796.84571    14179.312 
     111   0.11670396   -796.84759            0   -796.84569    14178.827 
     112    0.1266954   -796.84772            0   -796.84566    14178.307 
     113   0.13699772   -796.84787            0   -796.84564     14177.75 
     114   0.14759533   -796.84802            0   -796.84561    14177.153 
     115   0.15847217   -796.84817            0   -796.84559    14176.517 
     116   0.16961186   -796.84833            0   -796.84557    14175.839 
     117   0.18099762    -796.8485            0   -796.84555    14175.117 
     118   0.19261261   -796.84867            0   -796.84553     14174.35 
     119   0.20443888   -796.84884            0   -796.84551    14173.536 
     120   0.21645841   -796.84902            0    -796.8455    14172.674 
     121   0.22865258   -796.84921            0   -796.84548    14171.761 
     122   0.24100355   -796.84939            0   -796.84547    14170.798 
     123   0.25349164   -796.84959            0   -796.84546    14169.782 
     124   0.26609963   -796.84979            0   -796.84545    14168.713 
     125   0.27880451   -796.84999            0   -796.84545    14167.589 
     126   0.29159293    -796.8502            0   -796.84545    14166.407 
     127   0.30440952   -796.85041            0   -796.84545    14165.167 
     128   0.31712859   -796.85063            0   -796.84546     14163.87 
     129   0.32796415   -796.85085            0   -796.84551    14162.475 
     130   0.31902785   -796.85107            0   -796.84587    14160.891 
     131   0.16484234   -796.85122            0   -796.84854    14157.548 
     132 0.0045729663   -796.85124            0   -796.85117    14155.335 
     133 0.0081359789   -796.85128            0   -796.85114    14155.203 
     134  0.011461659   -796.85131            0   -796.85113    14154.982 
     135   0.01391562   -796.85136            0   -796.85113    14154.701 
     136  0.016429038   -796.85141            0   -796.85114    14154.389 
     137  0.019135706   -796.85146            0   -796.85115    14154.049 
     138  0.022035124   -796.85151            0   -796.85115    14153.682 
     139    0.0251229   -796.85157            0   -796.85116    14153.285 
     140    0.0283946   -796.85164            0   -796.85118     14152.86 
     141  0.031845545   -796.85171            0   -796.85119    14152.406 
     142  0.035470819   -796.85178            0    -796.8512    14151.922 
     143  0.039265209   -796.85185            0   -796.85121    14151.409 
     144  0.043223264   -796.85193            0   -796.85123    14150.865 
     145  0.047339275   -796.85202            0   -796.85125    14150.291 
     146  0.051607306   -796.85211            0   -796.85126    14149.686 
     147  0.056021186    -796.8522            0   -796.85128     14149.05 
     148  0.060574518   -796.85229            0   -796.85131    14148.383 
     149  0.065260688   -796.85239            0   -796.85133    14147.683 
     150  0.070072876    -796.8525            0   -796.85136    14146.952 
     151  0.075004076    -796.8526            0   -796.85138    14146.187 
     152  0.080047076   -796.85272            0   -796.85141     14145.39 
     153  0.085194534   -796.85283            0   -796.85144     14144.56 
     154  0.090438891   -796.85295            0   -796.85148    14143.695 
     155  0.095772432   -796.85308            0   -796.85152    14142.797 
     156   0.10118731    -796.8532            0   -796.85156    14141.865 
     157   0.10667512   -796.85334            0    -796.8516    14140.897 
     158   0.11222799   -796.85347            0   -796.85164    14139.895 
     159   0.11783787   -796.85361            0   -796.85169    14138.857 
     160   0.12349635   -796.85376            0   -796.85174    14137.784 
     161   0.12919529    -796.8539            0    -796.8518    14136.674 
     162   0.13492552   -796.85406            0   -796.85186     14135.53 
     163   0.14067895   -796.85421            0   -796.85192    14134.346 
     164   0.14643076   -796.85437            0   -796.85199    14133.134 
     165   0.15206981   -796.85454            0   -796.85206    14131.848 
     166   0.15610254   -796.85471            0   -796.85217    14130.637 
     167    0.1416527   -796.85487            0   -796.85256    14128.798 
     168  0.037527091   -796.85495            0   -796.85434    14127.361 
     169 0.00062098506   -796.85496            0   -796.85495    14126.723 
     170 0.0010780244   -796.85497            0   -796.85496    14126.546 
     171 0.0017561121   -796.85499            0   -796.85496    14126.347 
     172 0.0025741094   -796.85501            0   -796.85497    14126.142 
     173 0.0034101236   -796.85503            0   -796.85498    14125.936 
     174 0.0042723267   -796.85506            0   -796.85499    14125.722 
     175  0.005204591   -796.85509            0     -796.855    14125.492 
     176 0.0062219884   -796.85512            0   -796.85502    14125.241 
     177 0.0073256497   -796.85516            0   -796.85504    14124.967 
     178 0.0085141941    -796.8552            0   -796.85506    14124.669 
     179  0.009785966   -796.85524            0   -796.85508    14124.348 
     180    0.0111392   -796.85528            0    -796.8551    14124.003 
     181  0.012572013   -796.85533            0   -796.85513    14123.634 
     182  0.014082406   -796.85538            0   -796.85515    14123.242 
     183  0.015668263   -796.85544            0   -796.85518    14122.827 
     184  0.017327355   -796.85549            0   -796.85521    14122.387 
     185  0.019057344   -796.85556            0   -796.85524    14121.924 
     186  0.020855786   -796.85562            0   -796.85528    14121.437 
     187  0.022720135   -796.85569            0   -796.85532    14120.926 
     188   0.02464774   -796.85576            0   -796.85535    14120.391 
     189  0.026635854   -796.85583            0   -796.85539    14119.832 
     190   0.02868165    -796.8559            0   -796.85544     14119.25 
     191  0.030782195   -796.85598            0   -796.85548    14118.643 
     192  0.032934477   -796.85607            0   -796.85553    14118.012 
     193  0.035135402   -796.85615            0   -796.85558    14117.357 
     194  0.037381797   -796.85624            0   -796.85563    14116.678 
     195  0.039670423   -796.85633            0   -796.85568    14115.975 
     196  0.041997952   -796.85643            0   -796.85574    14115.248 
     197  0.044361018   -796.85652            0    -796.8558    14114.497 
     198  0.046756185   -796.85663            0   -796.85586    14113.721 
     199  0.049179948   -796.85673            0   -796.85593    14112.922 
     200  0.051628762   -796.85684            0     -796.856    14112.098 
     201  0.054099018   -796.85695            0   -796.85607     14111.25 
     202  0.056587056   -796.85706            0   -796.85614    14110.378 
     203  0.059088997   -796.85718            0   -796.85622    14109.482 
     204  0.061598838    -796.8573            0    -796.8563    14108.563 
     205  0.064092355   -796.85743            0   -796.85638    14107.615 
     206  0.066323462   -796.85756            0   -796.85648    14106.657 
     207  0.065468045   -796.85768            0   -796.85662    14105.607 
     208  0.038336387   -796.85778            0   -796.85716    14104.602 
     209 0.0012373755    -796.8578            0   -796.85778    14103.934 
     210 0.0023839498   -796.85782            0   -796.85778     14103.74 
     211 0.0030568983   -796.85785            0    -796.8578    14103.538 
     212 0.0035914634   -796.85788            0   -796.85782    14103.319 
     213 0.0041636477   -796.85791            0   -796.85784    14103.083 
     214 0.0047751224   -796.85794            0   -796.85787    14102.828 
     215  0.005425059   -796.85798            0   -796.85789    14102.555 
     216 0.0061125649   -796.85802            0   -796.85792    14102.264 
     217 0.0068366851   -796.85806            0   -796.85795    14101.955 
     218 0.0075964157    -796.8581            0   -796.85798    14101.628 
     219 0.0083906896   -796.85815            0   -796.85801    14101.283 
     220  0.009218392    -796.8582            0   -796.85805     14100.92 
     221  0.010078358   -796.85825            0   -796.85809    14100.539 
     222  0.010969375    -796.8583            0   -796.85813    14100.139 
     223  0.011890181   -796.85836            0   -796.85817    14099.722 
     224  0.012839467   -796.85842            0   -796.85821    14099.288 
     225  0.013815883   -796.85848            0   -796.85825    14098.835 
     226  0.014818035   -796.85854            0    -796.8583    14098.364 
     227  0.015844488   -796.85861            0   -796.85835    14097.876 
     228  0.016893768   -796.85868            0    -796.8584     14097.37 
     229  0.017964363   -796.85875            0   -796.85846    14096.847 
     230  0.019054727   -796.85882            0   -796.85851    14096.306 
     231  0.020163278    -796.8589            0   -796.85857    14095.747 
     232  0.021288409   -796.85898            0   -796.85863    14095.172 
     233  0.022428462   -796.85906            0   -796.85869    14094.578 
     234  0.023581793   -796.85914            0   -796.85876    14093.968 
     235  0.024746648   -796.85923            0   -796.85883     14093.34 
     236  0.025921462   -796.85932            0    -796.8589    14092.695 
     237  0.027104036   -796.85941            0   -796.85897    14092.035 
     238  0.028293689    -796.8595            0   -796.85904    14091.353 
     239  0.029483456    -796.8596            0   -796.85912    14090.668 
     240  0.030669031    -796.8597            0    -796.8592     14089.92 
     241  0.031643626    -796.8598            0   -796.85929    14089.314 
     242  0.030635519    -796.8599            0    -796.8594    14088.139 
     243  0.014831957   -796.85996            0   -796.85972    14088.461 
     244 0.00032174051   -796.85997            0   -796.85997    14088.016 
     245 0.00046889257   -796.85998            0   -796.85997    14087.748 
     246 0.00064708842   -796.85999            0   -796.85998    14087.509 
     247 0.00083069334   -796.86001            0      -796.86    14087.327 
     248 0.0010250076   -796.86003            0   -796.86001     14087.18 
     249 0.0012395934   -796.86005            0   -796.86003    14087.038 
     250 0.0014744351   -796.86007            0   -796.86004    14086.887 
     251 0.0017287712   -796.86009            0   -796.86006    14086.723 
     252 0.0020021336   -796.86012            0   -796.86008    14086.546 
     253 0.0022941276   -796.86014            0   -796.86011    14086.355 
     254 0.0026043493   -796.86017            0   -796.86013     14086.15 
     255 0.0029323679    -796.8602            0   -796.86016    14085.933 
     256 0.0032777265   -796.86024            0   -796.86018    14085.702 
     257 0.0036399419   -796.86027            0   -796.86021    14085.458 
     258 0.0040185054   -796.86031            0   -796.86024      14085.2 
     259 0.0044128852   -796.86035            0   -796.86027    14084.929 
     260  0.004822523   -796.86039            0   -796.86031    14084.645 
     261 0.0052468371   -796.86043            0   -796.86034    14084.348 
     262 0.0056852239   -796.86047            0   -796.86038    14084.038 
     263 0.0061370574   -796.86052            0   -796.86042    14083.714 
     264 0.0066016902   -796.86057            0   -796.86046    14083.378 
     265 0.0070784545   -796.86062            0    -796.8605    14083.029 
     266 0.0075666625   -796.86067            0   -796.86055    14082.667 
     267 0.0080656075   -796.86073            0   -796.86059    14082.293 
     268 0.0085745643   -796.86078            0   -796.86064    14081.906 
     269 0.0090927907   -796.86084            0   -796.86069    14081.506 
     270  0.009619527    -796.8609            0   -796.86074    14081.094 
     271     0.010154   -796.86096            0    -796.8608    14080.669 
     272  0.010695415   -796.86102            0   -796.86085    14080.232 
     273  0.011242958   -796.86109            0   -796.86091    14079.783 
     274  0.011795788   -796.86116            0   -796.86097    14079.322 
     275  0.012353152   -796.86123            0   -796.86103    14078.849 
     276   0.01291405    -796.8613            0   -796.86109    14078.364 
     277  0.013478077   -796.86137            0   -796.86115    14077.866 
     278  0.014043029   -796.86145            0   -796.86122    14077.361 
     279  0.014612245   -796.86153            0   -796.86129     14076.83 
     280  0.015171616   -796.86161            0   -796.86136    14076.336 
     281  0.015778555   -796.86169            0   -796.86143     14075.66 
     282  0.016420636   -796.86177            0    -796.8615     14075.62 
     283  0.015386718   -796.86182            0   -796.86157    14074.036 
     284 0.00047890448   -796.86182            0   -796.86182    14074.041 
     285 0.00053607357   -796.86183            0   -796.86182    14074.237 
     286 0.00048991432   -796.86184            0   -796.86183    14074.366 
     287 0.00043313675   -796.86185            0   -796.86185    14074.391 
     288 0.00047364282   -796.86187            0   -796.86186     14074.34 
     289 0.00056585067   -796.86188            0   -796.86187    14074.251 
     290 0.00067333052    -796.8619            0   -796.86189    14074.145 
     291 0.00078997092   -796.86192            0    -796.8619    14074.029 
     292 0.00091532366   -796.86193            0   -796.86192    14073.902 
     293 0.0010492422   -796.86196            0   -796.86194    14073.766 
     294 0.0011915431   -796.86198            0   -796.86196    14073.621 
     295 0.0013420265     -796.862            0   -796.86198    14073.466 
     296 0.0015004805   -796.86203            0     -796.862    14073.301 
     297  0.001666681   -796.86205            0   -796.86203    14073.127 
     298  0.001840392   -796.86208            0   -796.86205    14072.944 
     299 0.0020213658   -796.86211            0   -796.86208    14072.751 
     300 0.0022093434   -796.86214            0   -796.86211     14072.55 
     301 0.0024040548   -796.86217            0   -796.86213    14072.338 
     302 0.0026052191   -796.86221            0   -796.86217    14072.118 
     303 0.0028125452   -796.86224            0    -796.8622    14071.889 
     304 0.0030257316   -796.86228            0   -796.86223     14071.65 
     305 0.0032444673   -796.86232            0   -796.86226    14071.402 
     306 0.0034684318   -796.86236            0    -796.8623    14071.146 
     307 0.0036972966    -796.8624            0   -796.86234    14070.881 
     308 0.0039307219   -796.86244            0   -796.86238    14070.606 
     309 0.0041683606   -796.86249            0   -796.86242    14070.323 
     310 0.0044098579   -796.86253            0   -796.86246    14070.032 
     311 0.0046548523   -796.86258            0    -796.8625    14069.731 
     312 0.0049029743   -796.86263            0   -796.86255    14069.423 
     313 0.0051538469   -796.86268            0   -796.86259    14069.105 
     314 0.0054070888   -796.86273            0   -796.86264     14068.78 
     315 0.0056623181   -796.86278            0   -796.86269    14068.446 
     316 0.0059191237   -796.86283            0   -796.86274    14068.103 
     317 0.0061771233   -796.86289            0   -796.86279    14067.753 
     318 0.0064358736   -796.86295            0   -796.86284    14067.395 
     319 0.0066950171     -796.863            0    -796.8629     14067.03 
     320 0.0069539209   -796.86306            0   -796.86295    14066.652 
     321 0.0072105919   -796.86313            0   -796.86301    14066.284 
     322 0.0074460457   -796.86319            0   -796.86307    14065.843 
     323  0.007376845   -796.86325            0   -796.86313    14065.656 
     324  0.004424881   -796.86329            0   -796.86322    14064.809 
     325 6.2210492e-05    -796.8633            0   -796.86329    14064.824 
     326 8.8757025e-05    -796.8633            0    -796.8633    14064.899 
     327 0.00011860236   -796.86331            0    -796.8633    14064.953 
     328 0.00014992264   -796.86331            0   -796.86331    14064.965 
     329 0.00018462597   -796.86332            0   -796.86332    14064.934 
     330 0.00022533551   -796.86333            0   -796.86333    14064.878 
     331 0.00027082439   -796.86334            0   -796.86334    14064.809 
     332 0.0003203957   -796.86336            0   -796.86335    14064.732 
     333 0.00037390435   -796.86337            0   -796.86337    14064.649 
     334 0.00043127366   -796.86339            0   -796.86338    14064.559 
     335 0.00049242122    -796.8634            0   -796.86339    14064.462 
     336 0.00055725944   -796.86342            0   -796.86341    14064.358 
     337 0.00062569566   -796.86344            0   -796.86343    14064.248 
     338 0.00069763164   -796.86346            0   -796.86344    14064.132 
     339 0.00077296368   -796.86348            0   -796.86346    14064.009 
     340 0.00085158269    -796.8635            0   -796.86348     14063.88 
     341 0.00093337434   -796.86352            0    -796.8635    14063.744 
     342 0.0010182192   -796.86354            0   -796.86353    14063.602 
     343  0.001105993   -796.86357            0   -796.86355    14063.453 
     344 0.0011965663   -796.86359            0   -796.86357    14063.298 
     345 0.0012898056   -796.86362            0    -796.8636    14063.137 
     346 0.0013855717   -796.86365            0   -796.86362     14062.97 
     347 0.0014837217   -796.86368            0   -796.86365    14062.797 
     348 0.0015841082   -796.86371            0   -796.86368    14062.617 
     349 0.0016865798   -796.86374            0   -796.86371    14062.432 
     350 0.0017909811   -796.86377            0   -796.86374     14062.24 
     351 0.0018971529    -796.8638            0   -796.86377    14062.043 
     352 0.0020049322   -796.86384            0    -796.8638    14061.839 
     353  0.002114153   -796.86387            0   -796.86384     14061.63 
     354  0.002224645   -796.86391            0   -796.86387    14061.415 
     355 0.0023362354   -796.86394            0   -796.86391    14061.195 
     356  0.002448748   -796.86398            0   -796.86394    14060.968 
     357 0.0025620038   -796.86402            0   -796.86398    14060.736 
     358 0.0026758197   -796.86406            0   -796.86402    14060.499 
     359 0.0027900126    -796.8641            0   -796.86406    14060.256 
     360 0.0029043692   -796.86414            0    -796.8641    14060.009 
     361 0.0030185731   -796.86419            0   -796.86414    14059.755 
     362 0.0031304442   -796.86423            0   -796.86418    14059.498 
     363 0.0032167364   -796.86428            0   -796.86422    14059.231 
     364 0.0029775079   -796.86432            0   -796.86427    14058.989 
     365 0.00090721029   -796.86434            0   -796.86433    14058.792 
     366 7.8083574e-06   -796.86435            0   -796.86435    14058.774 
     367 1.423229e-05   -796.86435            0   -796.86435    14058.764 
     368 2.4787076e-05   -796.86435            0   -796.86435    14058.749 
     369 3.9982381e-05   -796.86436            0   -796.86436    14058.726 
     370 5.7398744e-05   -796.86436            0   -796.86436    14058.697 
     371 7.4993574e-05   -796.86437            0   -796.86437    14058.661 
     372 9.3432956e-05   -796.86438            0   -796.86437    14058.619 
     373 0.00011350773   -796.86438            0   -796.86438    14058.573 
     374 0.0001354155   -796.86439            0   -796.86439    14058.522 
     375 0.00015915369    -796.8644            0    -796.8644    14058.466 
     376 0.00018469033   -796.86441            0   -796.86441    14058.405 
     377 0.00021198885   -796.86442            0   -796.86442     14058.34 
     378 0.0002410098   -796.86444            0   -796.86443    14058.271 
     379 0.00027171101   -796.86445            0   -796.86444    14058.196 
     380 0.00030404761   -796.86446            0   -796.86446    14058.118 
     381 0.00033797213   -796.86448            0   -796.86447    14058.034 
     382 0.00037343451   -796.86449            0   -796.86449    14057.947 
     383 0.00041038219   -796.86451            0    -796.8645    14057.854 
     384 0.00044876013   -796.86453            0   -796.86452    14057.758 
     385 0.00048851089   -796.86454            0   -796.86454    14057.657 
     386 0.00052957469   -796.86456            0   -796.86455    14057.551 
     387 0.00057188948   -796.86458            0   -796.86457    14057.441 
     388 0.00061539097    -796.8646            0   -796.86459    14057.327 
     389 0.00066001278   -796.86462            0   -796.86461    14057.209 
     390 0.00070568638   -796.86464            0   -796.86463    14057.086 
     391 0.00075234124   -796.86467            0   -796.86465    14056.959 
     392 0.00079990487   -796.86469            0   -796.86468    14056.828 
     393 0.00084830292   -796.86471            0    -796.8647    14056.693 
     394 0.0008974593   -796.86474            0   -796.86472    14056.554 
     395 0.0009472961   -796.86476            0   -796.86475     14056.41 
     396 0.00099773365   -796.86479            0   -796.86477    14056.263 
     397 0.0010486907   -796.86482            0    -796.8648    14056.112 
     398 0.0011000846   -796.86485            0   -796.86483    14055.957 
     399 0.0011518309   -796.86487            0   -796.86486    14055.798 
     400  0.001203844    -796.8649            0   -796.86488    14055.635 
     401 0.0012560365   -796.86493            0   -796.86491    14055.468 
     402  0.001308319   -796.86496            0   -796.86494    14055.298 
     403 0.0013605858     -796.865            0   -796.86497    14055.124 
     404 0.0014125899   -796.86503            0   -796.86501    14054.947 
     405 0.0014622457   -796.86506            0   -796.86504    14054.766 
     406 0.0014834288    -796.8651            0   -796.86507    14054.582 
     407 0.0011711367   -796.86513            0   -796.86511     14054.42 
     408 0.00011002982   -796.86513            0   -796.86513    14054.354 
     409 5.3197085e-05   -796.86514            0   -796.86514    14054.321 
     410 6.4662643e-05   -796.86515            0   -796.86515    14054.285 
     411 7.5980991e-05   -796.86515            0   -796.86515    14054.246 
     412 8.8145207e-05   -796.86516            0   -796.86516    14054.203 
     413 0.00010114522   -796.86517            0   -796.86517    14054.157 
     414 0.00011496179   -796.86518            0   -796.86518    14054.108 
     415 0.00012957436   -796.86519            0   -796.86519    14054.056 
     416 0.00014496108    -796.8652            0    -796.8652        14054 
     417 0.0001610988   -796.86521            0   -796.86521    14053.941 
     418 0.00017796313   -796.86522            0   -796.86522    14053.879 
     419 0.00019552845   -796.86523            0   -796.86523    14053.814 
     420 0.00021376793   -796.86525            0   -796.86524    14053.746 
     421 0.00023265357   -796.86526            0   -796.86526    14053.675 
     422 0.00025215627   -796.86527            0   -796.86527      14053.6 
     423 0.00027224572   -796.86529            0   -796.86528    14053.523 
     424 0.00029289056    -796.8653            0    -796.8653    14053.443 
     425 0.0003140583   -796.86532            0   -796.86531    14053.359 
     426 0.00033571552   -796.86534            0   -796.86533    14053.273 
     427 0.00035782781   -796.86535            0   -796.86535    14053.183 
     428 0.00038035978   -796.86537            0   -796.86536    14053.091 
     429 0.00040327508   -796.86539            0   -796.86538    14052.996 
     430 0.00042653649   -796.86541            0    -796.8654    14052.898 
     431 0.00045010589   -796.86543            0   -796.86542    14052.797 
     432 0.00047394436   -796.86545            0   -796.86544    14052.693 
     433 0.00049801233   -796.86547            0   -796.86546    14052.587 
     434 0.00052226951   -796.86549            0   -796.86548    14052.477 
     435 0.00054667368   -796.86551            0    -796.8655    14052.366 
     436 0.00057118366   -796.86553            0   -796.86552    14052.251 
     437 0.00059574838   -796.86555            0   -796.86554    14052.134 
     438 0.0006202853   -796.86558            0   -796.86557    14052.014 
     439 0.0006442253    -796.8656            0   -796.86559    14051.892 
     440 0.00066181957   -796.86562            0   -796.86561    14051.768 
     441 0.0006068447   -796.86565            0   -796.86564    14051.647 
     442 0.00018654607   -796.86566            0   -796.86566    14051.579 
     443 3.4813371e-06   -796.86566            0   -796.86566    14051.569 
     444 6.1734202e-06   -796.86566            0   -796.86566    14051.558 
     445 1.0149136e-05   -796.86567            0   -796.86567    14051.544 
     446 1.4575701e-05   -796.86567            0   -796.86567    14051.527 
     447 1.8869837e-05   -796.86567            0   -796.86567    14051.507 
     448 2.3340987e-05   -796.86568            0   -796.86568    14051.485 
     449 2.8210321e-05   -796.86568            0   -796.86568    14051.461 
     450 3.3514736e-05   -796.86569            0   -796.86569    14051.434 
     451 3.9249889e-05   -796.86569            0   -796.86569    14051.405 
     452 4.5407323e-05    -796.8657            0    -796.8657    14051.374 
     453 5.197776e-05   -796.86571            0    -796.8657     14051.34 
     454 5.895122e-05   -796.86571            0   -796.86571    14051.305 
     455 6.6317047e-05   -796.86572            0   -796.86572    14051.266 
     456 7.4063919e-05   -796.86573            0   -796.86573    14051.226 
     457 8.217986e-05   -796.86574            0   -796.86573    14051.183 
     458 9.0652253e-05   -796.86575            0   -796.86574    14051.138 
     459 9.9467855e-05   -796.86575            0   -796.86575     14051.09 
     460 0.00010861281   -796.86576            0   -796.86576    14051.041 
     461 0.00011807266   -796.86577            0   -796.86577    14050.989 
     462 0.00012783235   -796.86579            0   -796.86578    14050.935 
     463 0.00013787626    -796.8658            0   -796.86579    14050.878 
     464 0.00014818822   -796.86581            0   -796.86581     14050.82 
     465 0.00015875152   -796.86582            0   -796.86582    14050.759 
     466 0.00016954891   -796.86583            0   -796.86583    14050.696 
     467 0.00018056264   -796.86585            0   -796.86584    14050.632 
     468 0.00019177446   -796.86586            0   -796.86586    14050.565 
     469 0.00020316564   -796.86587            0   -796.86587    14050.496 
     470 0.00021471701   -796.86589            0   -796.86588    14050.424 
     471 0.00022640892    -796.8659            0    -796.8659    14050.351 
     472 0.0002382213   -796.86592            0   -796.86591    14050.276 
     473 0.00025013368   -796.86593            0   -796.86593    14050.199 
     474 0.00026212515   -796.86595            0   -796.86594     14050.12 
     475 0.00027417445   -796.86597            0   -796.86596    14050.039 
     476 0.00028625974   -796.86598            0   -796.86598    14049.956 
     477 0.00029835824     -796.866            0   -796.86599    14049.871 
     478 0.00031043668   -796.86602            0   -796.86601    14049.785 
     479 0.00032236311   -796.86604            0   -796.86603    14049.696 
     480 0.00033275401   -796.86605            0   -796.86605    14049.606 
     481 0.00032453231   -796.86607            0   -796.86607    14049.516 
     482 0.00016522675   -796.86609            0   -796.86608    14049.453 
     483 2.8353775e-06   -796.86609            0   -796.86609    14049.443 
     484 5.3653953e-06   -796.86609            0   -796.86609    14049.432 
     485 8.6842966e-06   -796.86609            0   -796.86609    14049.419 
     486 1.1312654e-05    -796.8661            0    -796.8661    14049.403 
     487 1.3742302e-05    -796.8661            0    -796.8661    14049.385 
     488 1.6354059e-05    -796.8661            0    -796.8661    14049.366 
     489 1.9179062e-05   -796.86611            0   -796.86611    14049.346 
     490 2.2213716e-05   -796.86611            0   -796.86611    14049.323 
     491 2.5453305e-05   -796.86612            0   -796.86612    14049.299 
     492 2.8892763e-05   -796.86612            0   -796.86612    14049.273 
     493 3.2526675e-05   -796.86613            0   -796.86613    14049.246 
     494 3.6349287e-05   -796.86613            0   -796.86613    14049.217 
     495 4.0354508e-05   -796.86614            0   -796.86614    14049.186 
     496 4.453592e-05   -796.86615            0   -796.86615    14049.154 
     497 4.8886781e-05   -796.86615            0   -796.86615     14049.12 
     498 5.3400032e-05   -796.86616            0   -796.86616    14049.084 
     499 5.8068307e-05   -796.86617            0   -796.86617    14049.047 
     500 6.2883938e-05   -796.86618            0   -796.86618    14049.008 
     501 6.7838963e-05   -796.86619            0   -796.86619    14048.967 
     502 7.2925133e-05    -796.8662            0   -796.86619    14048.925 
     503 7.8133921e-05    -796.8662            0    -796.8662    14048.882 
     504 8.3456528e-05   -796.86621            0   -796.86621    14048.837 
     505 8.8883895e-05   -796.86622            0   -796.86622     14048.79 
     506 9.4406708e-05   -796.86623            0   -796.86623    14048.742 
     507 0.0001000154   -796.86625            0   -796.86624    14048.692 
     508 0.00010570019   -796.86626            0   -796.86625    14048.641 
     509 0.00011145103   -796.86627            0   -796.86627    14048.588 
     510 0.00011725767   -796.86628            0   -796.86628    14048.534 
     511 0.00012310966   -796.86629            0   -796.86629    14048.479 
     512 0.00012899634    -796.8663            0    -796.8663    14048.422 
     513 0.0001349068   -796.86632            0   -796.86631    14048.363 
     514 0.00014083007   -796.86633            0   -796.86633    14048.304 
     515 0.00014675451   -796.86634            0   -796.86634    14048.243 
     516 0.00015266841   -796.86636            0   -796.86635     14048.18 
     517 0.00015854232   -796.86637            0   -796.86637    14048.117 
     518 0.00016418822   -796.86638            0   -796.86638    14048.051 
     519 0.00016691798    -796.8664            0    -796.8664    14047.989 
     520 0.00013420652   -796.86641            0   -796.86641    14047.915 
     521 1.3182606e-05   -796.86641            0   -796.86641    14047.912 
     522 5.4985896e-06   -796.86642            0   -796.86642    14047.897 
     523 6.7853865e-06   -796.86642            0   -796.86642    14047.884 
     524 8.0822773e-06   -796.86642            0   -796.86642    14047.871 
     525 9.4856564e-06   -796.86643            0   -796.86643    14047.856 
     526 1.0993535e-05   -796.86643            0   -796.86643    14047.839 
     527 1.2603458e-05   -796.86643            0   -796.86643    14047.822 
     528 1.4312828e-05   -796.86644            0   -796.86644    14047.803 
     529 1.6118861e-05   -796.86644            0   -796.86644    14047.783 
     530 1.8018603e-05   -796.86645            0   -796.86645    14047.762 
     531 2.0008921e-05   -796.86645            0   -796.86645     14047.74 
     532 2.2086516e-05   -796.86646            0   -796.86646    14047.717 
     533 2.4247923e-05   -796.86646            0   -796.86646    14047.692 
     534 2.6489511e-05   -796.86647            0   -796.86647    14047.666 
     535 2.8807494e-05   -796.86647            0   -796.86647    14047.639 
     536 3.1197927e-05   -796.86648            0   -796.86648    14047.611 
     537 3.3656717e-05   -796.86649            0   -796.86649    14047.582 
     538 3.6179623e-05   -796.86649            0   -796.86649    14047.551 
     539 3.8762259e-05    -796.8665            0    -796.8665    14047.519 
     540 4.1400105e-05   -796.86651            0   -796.86651    14047.487 
     541 4.4088501e-05   -796.86652            0   -796.86652    14047.453 
     542 4.6822663e-05   -796.86652            0   -796.86652    14047.418 
     543 4.9597676e-05   -796.86653            0   -796.86653    14047.382 
     544 5.2408517e-05   -796.86654            0   -796.86654    14047.345 
     545 5.5250019e-05   -796.86655            0   -796.86655    14047.307 
     546 5.8116969e-05   -796.86656            0   -796.86656    14047.267 
     547 6.1003879e-05   -796.86657            0   -796.86657    14047.227 
     548 6.3905601e-05   -796.86658            0   -796.86658    14047.186 
     549 6.6815442e-05   -796.86659            0   -796.86659    14047.143 
     550 6.9729384e-05    -796.8666            0    -796.8666      14047.1 
     551 7.2618055e-05   -796.86661            0   -796.86661    14047.057 
     552 7.5353119e-05   -796.86662            0   -796.86662    14047.007 
     553 7.5969824e-05   -796.86663            0   -796.86663    14046.976 
     554 5.6916656e-05   -796.86664            0   -796.86664    14046.896 
     555 5.1909153e-06   -796.86664            0   -796.86664    14046.914 
     556 4.7193833e-06   -796.86664            0   -796.86664    14046.908 
     557 5.3821491e-06   -796.86664            0   -796.86664    14046.896 
     558 6.2202408e-06   -796.86665            0   -796.86665    14046.884 
     559 7.1168504e-06   -796.86665            0   -796.86665     14046.87 
     560 8.0674895e-06   -796.86665            0   -796.86665    14046.856 
     561 9.0708616e-06   -796.86666            0   -796.86666     14046.84 
     562 1.0125086e-05   -796.86666            0   -796.86666    14046.824 
     563 1.1228473e-05   -796.86667            0   -796.86666    14046.807 
     564 1.2379059e-05   -796.86667            0   -796.86667    14046.789 
     565 1.3574928e-05   -796.86667            0   -796.86667     14046.77 
     566 1.4813943e-05   -796.86668            0   -796.86668     14046.75 
     567 1.6094013e-05   -796.86668            0   -796.86668    14046.729 
     568 1.7412804e-05   -796.86669            0   -796.86669    14046.707 
     569 1.8768103e-05   -796.86669            0   -796.86669    14046.685 
     570 2.0157318e-05    -796.8667            0    -796.8667    14046.661 
     571 2.1578244e-05   -796.86671            0    -796.8667    14046.637 
     572 2.3027802e-05   -796.86671            0   -796.86671    14046.612 
     573 2.450429e-05   -796.86672            0   -796.86672    14046.586 
     574 2.6003008e-05   -796.86672            0   -796.86672    14046.559 
     575 2.7525088e-05   -796.86673            0   -796.86673    14046.531 
     576 2.9057131e-05   -796.86674            0   -796.86674    14046.504 
     577 3.0614575e-05   -796.86674            0   -796.86674     14046.47 
     578 3.2114151e-05   -796.86675            0   -796.86675     14046.45 
     579 3.3585716e-05   -796.86676            0   -796.86676    14046.394 
     580 3.2154248e-05   -796.86676            0   -796.86676    14046.429 
     581 1.1501844e-05   -796.86677            0   -796.86677    14046.369 
     582 3.2325109e-06   -796.86677            0   -796.86677    14046.371 
     583 3.3792287e-06   -796.86677            0   -796.86677     14046.36 
     584 3.9146503e-06   -796.86677            0   -796.86677     14046.35 
     585 4.4918447e-06   -796.86678            0   -796.86678    14046.339 
     586 5.104602e-06   -796.86678            0   -796.86678    14046.328 
     587 5.7521892e-06   -796.86678            0   -796.86678    14046.315 
     588 6.4332709e-06   -796.86679            0   -796.86679    14046.302 
     589 7.1467883e-06   -796.86679            0   -796.86679    14046.288 
     590 7.8914096e-06   -796.86679            0   -796.86679    14046.273 
     591 8.6659047e-06    -796.8668            0    -796.8668    14046.257 
     592 9.4688335e-06    -796.8668            0    -796.8668    14046.241 
     593 1.0298853e-05    -796.8668            0    -796.8668    14046.224 
     594 1.1154377e-05   -796.86681            0   -796.86681    14046.206 
     595 1.2034009e-05   -796.86681            0   -796.86681    14046.188 
     596 1.2935945e-05   -796.86682            0   -796.86682    14046.169 
     597 1.3858883e-05   -796.86682            0   -796.86682    14046.149 
     598 1.4800536e-05   -796.86683            0   -796.86683    14046.128 
     599 1.5760327e-05   -796.86683            0   -796.86683    14046.106 
     600 1.6734335e-05   -796.86684            0   -796.86684    14046.085 
     601 1.7726693e-05   -796.86684            0   -796.86684    14046.061 
     602 1.8730232e-05   -796.86685            0   -796.86685     14046.04 
     603 1.9813917e-05   -796.86686            0   -796.86686     14046.01 
     604 2.1221634e-05   -796.86686            0   -796.86686    14046.001 
     605 2.5338542e-05   -796.86687            0   -796.86687    14045.934 
     606 3.450291e-05   -796.86687            0   -796.86687    14046.003 
     607 1.0990719e-05   -796.86687            0   -796.86687    14045.942 
     608 1.8818544e-06   -796.86688            0   -796.86688    14045.933 
     609 2.2018658e-06   -796.86688            0   -796.86688    14045.926 
     610 2.5578771e-06   -796.86688            0   -796.86688    14045.917 
     611 2.9382346e-06   -796.86688            0   -796.86688    14045.908 
     612 3.3423795e-06   -796.86689            0   -796.86689    14045.898 
     613 3.7695379e-06   -796.86689            0   -796.86689    14045.888 
     614 4.2189935e-06   -796.86689            0   -796.86689    14045.877 
     615 4.6899362e-06   -796.86689            0   -796.86689    14045.865 
     616 5.1815463e-06    -796.8669            0    -796.8669    14045.853 
     617 5.692936e-06    -796.8669            0    -796.8669     14045.84 
     618 6.2232015e-06    -796.8669            0    -796.8669    14045.827 
     619 6.7713729e-06   -796.86691            0   -796.86691    14045.813 
     620 7.336474e-06   -796.86691            0   -796.86691    14045.798 
     621 7.9174485e-06   -796.86691            0   -796.86691    14045.782 
     622 8.513268e-06   -796.86692            0   -796.86692    14045.766 
     623 9.1227672e-06   -796.86692            0   -796.86692     14045.75 
     624 9.7449272e-06   -796.86693            0   -796.86693    14045.733 
     625 1.0378363e-05   -796.86693            0   -796.86693    14045.715 
     626 1.1022353e-05   -796.86694            0   -796.86694    14045.697 
     627 1.167475e-05   -796.86694            0   -796.86694    14045.678 
     628 1.2337259e-05   -796.86695            0   -796.86695    14045.658 
     629 1.3006761e-05   -796.86695            0   -796.86695    14045.639 
     630 1.3729176e-05   -796.86696            0   -796.86696    14045.614 
     631 1.4726757e-05   -796.86696            0   -796.86696    14045.606 
     632 1.8322909e-05   -796.86697            0   -796.86697    14045.547 
     633 3.0482472e-05   -796.86697            0   -796.86697    14045.617 
     634 9.2337122e-06   -796.86697            0   -796.86697    14045.561 
     635 1.2788216e-06   -796.86698            0   -796.86698    14045.548 
     636 1.3444685e-06   -796.86698            0   -796.86698    14045.543 
     637 1.5679933e-06   -796.86698            0   -796.86698    14045.536 
     638 1.8081597e-06   -796.86698            0   -796.86698    14045.529 
     639 2.063948e-06   -796.86698            0   -796.86698    14045.521 
     640 2.3347373e-06   -796.86698            0   -796.86698    14045.512 
     641 2.6201051e-06   -796.86699            0   -796.86699    14045.503 
     642 2.9195075e-06   -796.86699            0   -796.86699    14045.494 
     643 3.2324343e-06   -796.86699            0   -796.86699    14045.484 
     644 3.5582995e-06   -796.86699            0   -796.86699    14045.474 
     645 3.8965357e-06     -796.867            0     -796.867    14045.463 
     646 4.2465017e-06     -796.867            0     -796.867    14045.451 
     647 4.6075893e-06     -796.867            0     -796.867    14045.439 
     648 4.9790882e-06   -796.86701            0   -796.86701    14045.427 
     649 5.360381e-06   -796.86701            0   -796.86701    14045.414 
     650 5.750642e-06   -796.86701            0   -796.86701      14045.4 
     651 6.1493547e-06   -796.86702            0   -796.86702    14045.386 
     652 6.5553821e-06   -796.86702            0   -796.86702    14045.372 
     653 6.9689115e-06   -796.86703            0   -796.86703    14045.356 
     654 7.3879289e-06   -796.86703            0   -796.86703    14045.342 
     655 7.8201849e-06   -796.86703            0   -796.86703    14045.324 
     656 8.2829964e-06   -796.86704            0   -796.86704    14045.312 
     657 9.0284003e-06   -796.86704            0   -796.86704    14045.283 
     658 1.1675783e-05   -796.86705            0   -796.86705    14045.299 
     659 2.1890286e-05   -796.86705            0   -796.86705    14045.213 
     660 9.6463399e-06   -796.86705            0   -796.86705    14045.261 
     661 8.3197271e-07   -796.86705            0   -796.86705    14045.252 
     662 9.1658958e-07   -796.86706            0   -796.86706    14045.247 
     663 1.0676293e-06   -796.86706            0   -796.86706    14045.241 
     664 1.2298168e-06   -796.86706            0   -796.86706    14045.235 
     665 1.4024712e-06   -796.86706            0   -796.86706    14045.228 
     666 1.585143e-06   -796.86706            0   -796.86706    14045.221 
     667 1.7775574e-06   -796.86706            0   -796.86706    14045.214 
     668 1.9793337e-06   -796.86707            0   -796.86707    14045.206 
     669 2.1901353e-06   -796.86707            0   -796.86707    14045.197 
     670 2.4095549e-06   -796.86707            0   -796.86707    14045.189 
     671 2.6372192e-06   -796.86707            0   -796.86707    14045.179 
     672 2.8726801e-06   -796.86708            0   -796.86708     14045.17 
     673 3.1155459e-06   -796.86708            0   -796.86708    14045.159 
     674 3.3653075e-06   -796.86708            0   -796.86708    14045.149 
     675 3.6215985e-06   -796.86708            0   -796.86708    14045.138 
     676 3.883778e-06   -796.86709            0   -796.86709    14045.127 
     677 4.1516872e-06   -796.86709            0   -796.86709    14045.115 
     678 4.4243013e-06   -796.86709            0   -796.86709    14045.103 
     679 4.7030187e-06    -796.8671            0    -796.8671    14045.089 
     680 4.9877285e-06    -796.8671            0    -796.8671    14045.078 
     681 5.3086052e-06   -796.86711            0   -796.86711    14045.061 
     682 5.8157171e-06   -796.86711            0   -796.86711    14045.057 
     683 7.7976401e-06   -796.86711            0   -796.86711    14045.016 
     684 1.5600625e-05   -796.86712            0   -796.86712    14045.067 
     685 9.0495575e-06   -796.86712            0   -796.86712    14045.011 
     686 8.2416782e-07   -796.86712            0   -796.86712    14045.017 
     687 5.8953185e-07   -796.86712            0   -796.86712    14045.012 
     688 6.8718951e-07   -796.86712            0   -796.86712    14045.007 
     689 7.9528799e-07   -796.86712            0   -796.86712    14045.002 
     690 9.1057891e-07   -796.86712            0   -796.86712    14044.997 
     691 1.0328876e-06   -796.86713            0   -796.86713    14044.991 
     692 1.1619279e-06   -796.86713            0   -796.86713    14044.984 
     693 1.2975042e-06   -796.86713            0   -796.86713    14044.978 
     694 1.4393442e-06   -796.86713            0   -796.86713    14044.971 
     695 1.5872164e-06   -796.86713            0   -796.86713    14044.963 
     696 1.7408262e-06   -796.86714            0   -796.86714    14044.956 
     697 1.8999238e-06   -796.86714            0   -796.86714    14044.948 
     698 2.0641781e-06   -796.86714            0   -796.86714    14044.939 
     699 2.2333447e-06   -796.86714            0   -796.86714     14044.93 
     700 2.4070225e-06   -796.86715            0   -796.86715    14044.921 
     701 2.5850517e-06   -796.86715            0   -796.86715    14044.912 
     702 2.7668453e-06   -796.86715            0   -796.86715    14044.902 
     703 2.9527952e-06   -796.86715            0   -796.86715    14044.891 
     704 3.1421794e-06   -796.86716            0   -796.86716    14044.882 
     705 3.3425673e-06   -796.86716            0   -796.86716    14044.869 
     706 3.5808503e-06   -796.86716            0   -796.86716    14044.862 
     707 4.1172307e-06   -796.86717            0   -796.86717    14044.839 
     708 6.5136035e-06   -796.86717            0   -796.86717    14044.859 
     709 1.2808605e-05   -796.86717            0   -796.86717    14044.792 
     710 3.7159829e-06   -796.86717            0   -796.86717    14044.821 
     711 3.8522217e-07   -796.86717            0   -796.86717    14044.822 
     712 3.890782e-07   -796.86717            0   -796.86717    14044.818 
     713 4.5736217e-07   -796.86718            0   -796.86718    14044.815 
     714 5.3119337e-07   -796.86718            0   -796.86718     14044.81 
     715 6.1005232e-07   -796.86718            0   -796.86718    14044.806 
     716 6.9381931e-07   -796.86718            0   -796.86718    14044.801 
     717 7.8233238e-07   -796.86718            0   -796.86718    14044.796 
     718 8.7544163e-07   -796.86718            0   -796.86718     14044.79 
     719 9.7297486e-07   -796.86718            0   -796.86718    14044.784 
     720 1.0747621e-06   -796.86719            0   -796.86719    14044.778 
     721 1.1806148e-06   -796.86719            0   -796.86719    14044.772 
     722 1.2903476e-06   -796.86719            0   -796.86719    14044.765 
     723 1.4037535e-06   -796.86719            0   -796.86719    14044.758 
     724 1.5206374e-06   -796.86719            0   -796.86719     14044.75 
     725 1.6407677e-06    -796.8672            0    -796.8672    14044.742 
     726 1.7639563e-06    -796.8672            0    -796.8672    14044.734 
     727 1.8899203e-06    -796.8672            0    -796.8672    14044.726 
     728 2.018556e-06    -796.8672            0    -796.8672    14044.717 
     729 2.1494368e-06   -796.86721            0   -796.86721    14044.709 
     730 2.2832666e-06   -796.86721            0   -796.86721    14044.699 
     731 2.420912e-06   -796.86721            0   -796.86721    14044.691 
     732 2.5842277e-06   -796.86721            0   -796.86721    14044.677 
     733 2.9120368e-06   -796.86722            0   -796.86722    14044.677 
     734 4.5882428e-06   -796.86722            0   -796.86722    14044.641 
     735 1.0375478e-05   -796.86722            0   -796.86722    14044.688 
     736 3.022864e-06   -796.86722            0   -796.86722    14044.656 
     737 3.1969894e-07   -796.86722            0   -796.86722    14044.647 
     738 2.5690387e-07   -796.86723            0   -796.86723    14044.645 
     739 3.0277103e-07   -796.86723            0   -796.86723    14044.641 
     740 3.5253718e-07   -796.86723            0   -796.86723    14044.638 
     741 4.0580471e-07   -796.86723            0   -796.86723    14044.634 
     742 4.6244569e-07   -796.86723            0   -796.86723     14044.63 
     743 5.2237074e-07   -796.86723            0   -796.86723    14044.625 
     744 5.8546827e-07   -796.86723            0   -796.86723    14044.621 
     745 6.5163177e-07   -796.86723            0   -796.86723    14044.616 
     746 7.2074004e-07   -796.86724            0   -796.86724    14044.611 
     747 7.9267481e-07   -796.86724            0   -796.86724    14044.605 
     748 8.6730302e-07   -796.86724            0   -796.86724      14044.6 
     749 9.4449816e-07   -796.86724            0   -796.86724    14044.594 
     750 1.0241125e-06   -796.86724            0   -796.86724    14044.587 
     751 1.1060189e-06   -796.86724            0   -796.86724    14044.581 
     752 1.1900441e-06   -796.86725            0   -796.86725    14044.574 
     753 1.2760896e-06   -796.86725            0   -796.86725    14044.567 
     754 1.3639151e-06   -796.86725            0   -796.86725     14044.56 
     755 1.4536618e-06   -796.86725            0   -796.86725    14044.552 
     756 1.5451803e-06   -796.86726            0   -796.86726    14044.545 
     757 1.642988e-06   -796.86726            0   -796.86726    14044.535 
     758 1.7696103e-06   -796.86726            0   -796.86726    14044.531 
     759 2.1404767e-06   -796.86726            0   -796.86726    14044.512 
     760 4.1653442e-06   -796.86727            0   -796.86727    14044.533 
     761 7.5463728e-06   -796.86727            0   -796.86727    14044.481 
     762 1.1366042e-06   -796.86727            0   -796.86727    14044.497 
     763 2.8435774e-07   -796.86727            0   -796.86727    14044.502 
     764 1.3545078e-07   -796.86727            0   -796.86727    14044.501 
     765 1.607447e-07   -796.86727            0   -796.86727    14044.499 
     766 1.9126121e-07   -796.86727            0   -796.86727    14044.496 
     767 2.2426272e-07   -796.86727            0   -796.86727    14044.493 
     768 2.5969159e-07   -796.86727            0   -796.86727     14044.49 
     769 2.9748781e-07   -796.86727            0   -796.86727    14044.487 
     770 3.3758661e-07   -796.86727            0   -796.86727    14044.483 
     771 3.799192e-07   -796.86728            0   -796.86728    14044.479 
     772 4.2441258e-07   -796.86728            0   -796.86728    14044.475 
     773 4.7098987e-07   -796.86728            0   -796.86728    14044.471 
     774 5.1957032e-07   -796.86728            0   -796.86728    14044.467 
     775 5.7006955e-07   -796.86728            0   -796.86728    14044.462 
     776 6.2239958e-07   -796.86728            0   -796.86728    14044.457 
     777 6.7646916e-07   -796.86728            0   -796.86728    14044.452 
     778 7.321837e-07   -796.86729            0   -796.86729    14044.446 
     779 7.8944586e-07   -796.86729            0   -796.86729    14044.441 
     780 8.4815492e-07   -796.86729            0   -796.86729    14044.435 
     781 9.0820859e-07   -796.86729            0   -796.86729    14044.429 
     782 9.6949988e-07   -796.86729            0   -796.86729    14044.422 
     783 1.0319246e-06   -796.86729            0   -796.86729    14044.416 
     784 1.0953648e-06    -796.8673            0    -796.8673    14044.409 
     785 1.1597324e-06    -796.8673            0    -796.8673    14044.402 
     786 1.2248724e-06    -796.8673            0    -796.8673    14044.395 
     787 1.2909819e-06    -796.8673            0    -796.8673    14044.388 
     788 1.3588807e-06   -796.86731            0   -796.86731    14044.381 
     789 1.4455925e-06   -796.86731            0   -796.86731     14044.37 
     790 1.7265537e-06   -796.86731            0   -796.86731    14044.372 
     791 4.0366108e-06   -796.86731            0   -796.86731    14044.335 
     792 6.5666535e-06   -796.86731            0   -796.86731    14044.376 
     793 3.0171732e-07   -796.86731            0   -796.86731    14044.366 
     794 2.1697605e-07   -796.86731            0   -796.86731    14044.358 
     795 9.9430589e-08   -796.86731            0   -796.86731    14044.353 
     796 6.3933892e-08   -796.86732            0   -796.86732     14044.35 
     797 7.2515693e-08   -796.86732            0   -796.86732    14044.348 
     798 8.8739935e-08   -796.86732            0   -796.86732    14044.346 
     799 1.0684074e-07   -796.86732            0   -796.86732    14044.344 
     800 1.2653309e-07   -796.86732            0   -796.86732    14044.342 
     801 1.4778251e-07   -796.86732            0   -796.86732    14044.339 
     802 1.7055427e-07   -796.86732            0   -796.86732    14044.337 
     803 1.948108e-07   -796.86732            0   -796.86732    14044.334 
     804 2.2051197e-07   -796.86732            0   -796.86732    14044.331 
     805 2.4761509e-07   -796.86732            0   -796.86732    14044.328 
     806 2.7607506e-07   -796.86732            0   -796.86732    14044.325 
     807 3.0584437e-07   -796.86732            0   -796.86732    14044.321 
     808 3.3687326e-07   -796.86733            0   -796.86733    14044.317 
     809 3.6910976e-07   -796.86733            0   -796.86733    14044.313 
     810 4.0249985e-07   -796.86733            0   -796.86733    14044.309 
     811 4.3698744e-07   -796.86733            0   -796.86733    14044.305 
     812 4.7251468e-07   -796.86733            0   -796.86733    14044.301 
     813 5.0902178e-07   -796.86733            0   -796.86733    14044.296 
     814 5.4644753e-07   -796.86733            0   -796.86733    14044.291 
     815 5.8472877e-07   -796.86734            0   -796.86734    14044.286 
     816 6.238018e-07   -796.86734            0   -796.86734    14044.281 
     817 6.635996e-07   -796.86734            0   -796.86734    14044.276 
     818 7.0405904e-07   -796.86734            0   -796.86734     14044.27 
     819 7.4510378e-07   -796.86734            0   -796.86734    14044.264 
     820  7.86698e-07   -796.86734            0   -796.86734    14044.258 
     821 8.2875893e-07   -796.86735            0   -796.86735    14044.253 
     822 8.7213242e-07   -796.86735            0   -796.86735    14044.246 
     823 9.2371501e-07   -796.86735            0   -796.86735    14044.241 
     824 1.0827379e-06   -796.86735            0   -796.86735    14044.228 
     825 2.4364351e-06   -796.86735            0   -796.86735    14044.245 
     826 5.0962546e-06   -796.86736            0   -796.86736    14044.202 
     827 1.3182399e-07   -796.86736            0   -796.86736    14044.207 
     828 1.5166867e-07   -796.86736            0   -796.86736    14044.213 
     829 1.1560049e-07   -796.86736            0   -796.86736    14044.218 
     830 5.8478969e-08   -796.86736            0   -796.86736     14044.22 
     831 3.7793418e-08   -796.86736            0   -796.86736     14044.22 
     832 4.2033609e-08   -796.86736            0   -796.86736    14044.219 
     833 5.1728897e-08   -796.86736            0   -796.86736    14044.218 
     834 6.2705208e-08   -796.86736            0   -796.86736    14044.216 
     835 7.4688048e-08   -796.86736            0   -796.86736    14044.214 
     836 8.7657464e-08   -796.86736            0   -796.86736    14044.212 
     837 1.0159304e-07   -796.86736            0   -796.86736     14044.21 
     838 1.1647286e-07   -796.86736            0   -796.86736    14044.208 
     839 1.3227338e-07   -796.86736            0   -796.86736    14044.206 
     840 1.4896955e-07   -796.86736            0   -796.86736    14044.203 
     841 1.6653483e-07   -796.86736            0   -796.86736    14044.201 
     842 1.8494125e-07   -796.86736            0   -796.86736    14044.198 
     843 2.0415945e-07   -796.86736            0   -796.86736    14044.195 
     844 2.2415875e-07   -796.86737            0   -796.86737    14044.192 
     845 2.449072e-07   -796.86737            0   -796.86737    14044.189 
     846 2.6637163e-07   -796.86737            0   -796.86737    14044.185 
     847 2.8851774e-07   -796.86737            0   -796.86737    14044.182 
     848 3.1131013e-07   -796.86737            0   -796.86737    14044.178 
     849 3.347124e-07   -796.86737            0   -796.86737    14044.174 
     850 3.5868724e-07   -796.86737            0   -796.86737     14044.17 
     851 3.8319631e-07   -796.86737            0   -796.86737    14044.166 
     852 4.0820095e-07   -796.86738            0   -796.86738    14044.162 
     853 4.336605e-07   -796.86738            0   -796.86738    14044.157 
     854 4.595374e-07   -796.86738            0   -796.86738    14044.153 
     855 4.857846e-07   -796.86738            0   -796.86738    14044.148 
     856 5.1239725e-07   -796.86738            0   -796.86738    14044.143 
     857 5.3940641e-07   -796.86738            0   -796.86738    14044.138 
     858 5.6866769e-07   -796.86739            0   -796.86739    14044.132 
     859 6.2009395e-07   -796.86739            0   -796.86739     14044.13 
     860 9.6566325e-07   -796.86739            0   -796.86739    14044.114 
     861 3.3765584e-06   -796.86739            0   -796.86739    14044.141 
     862 6.1212674e-07   -796.86739            0   -796.86739    14044.127 
     863 2.4888871e-07   -796.86739            0   -796.86739    14044.118 
     864 3.671882e-08   -796.86739            0   -796.86739    14044.116 
     865 3.9060986e-08   -796.86739            0   -796.86739    14044.114 
     866 4.6634506e-08   -796.86739            0   -796.86739    14044.113 
     867 5.4844146e-08   -796.86739            0   -796.86739    14044.111 
     868 6.3676822e-08   -796.86739            0   -796.86739     14044.11 
     869 7.3118826e-08   -796.86739            0   -796.86739    14044.108 
     870 8.315613e-08   -796.86739            0   -796.86739    14044.106 
     871 9.3773496e-08    -796.8674            0    -796.8674    14044.104 
     872 1.0495495e-07    -796.8674            0    -796.8674    14044.102 
     873 1.1668351e-07    -796.8674            0    -796.8674      14044.1 
     874 1.2894146e-07    -796.8674            0    -796.8674    14044.097 
     875 1.4171013e-07    -796.8674            0    -796.8674    14044.095 
     876 1.5497027e-07    -796.8674            0    -796.8674    14044.092 
     877 1.6870159e-07    -796.8674            0    -796.8674    14044.089 
     878 1.8288354e-07    -796.8674            0    -796.8674    14044.086 
     879 1.9749416e-07    -796.8674            0    -796.8674    14044.083 
     880 2.1251228e-07    -796.8674            0    -796.8674     14044.08 
     881 2.2791335e-07    -796.8674            0    -796.8674    14044.077 
     882 2.4367886e-07   -796.86741            0   -796.86741    14044.074 
     883  2.59778e-07   -796.86741            0   -796.86741     14044.07 
     884 2.7623314e-07   -796.86741            0   -796.86741    14044.066 
     885 2.9311893e-07   -796.86741            0   -796.86741    14044.063 
     886 3.1204986e-07   -796.86741            0   -796.86741    14044.058 
     887 3.4621695e-07   -796.86741            0   -796.86741    14044.057 
     888 5.3346564e-07   -796.86741            0   -796.86741    14044.045 
     889 1.6731217e-06   -796.86741            0   -796.86741    14044.063 
     890 9.1130653e-07   -796.86741            0   -796.86741    14044.046 
     891 3.0211935e-08   -796.86741            0   -796.86741    14044.046 
     892 3.0573361e-08   -796.86742            0   -796.86742    14044.045 
     893 3.608367e-08   -796.86742            0   -796.86742    14044.043 
     894 4.2096761e-08   -796.86742            0   -796.86742    14044.042 
     895 4.8542675e-08   -796.86742            0   -796.86742    14044.041 
     896 5.5412625e-08   -796.86742            0   -796.86742    14044.039 
     897 6.2694813e-08   -796.86742            0   -796.86742    14044.037 
     898 7.0379794e-08   -796.86742            0   -796.86742    14044.036 
     899 7.8455453e-08   -796.86742            0   -796.86742    14044.034 
     900 8.6911044e-08   -796.86742            0   -796.86742    14044.032 
     901 9.5733175e-08   -796.86742            0   -796.86742     14044.03 
     902 1.0491051e-07   -796.86742            0   -796.86742    14044.027 
     903 1.1442766e-07   -796.86742            0   -796.86742    14044.025 
     904 1.2427438e-07   -796.86742            0   -796.86742    14044.023 
     905 1.3443135e-07   -796.86742            0   -796.86742     14044.02 
     906 1.4489845e-07   -796.86742            0   -796.86742    14044.018 
     907 1.5565619e-07   -796.86743            0   -796.86743    14044.015 
     908 1.6683806e-07   -796.86743            0   -796.86743    14044.012 
     909 1.7893822e-07   -796.86743            0   -796.86743     14044.01 
     910 1.9651084e-07   -796.86743            0   -796.86743    14044.005 
     911 2.5057945e-07   -796.86743            0   -796.86743    14044.006 
     912 5.5329333e-07   -796.86743            0   -796.86743    14043.992 
     913 1.2065143e-06   -796.86743            0   -796.86743    14044.009 
     914 2.583252e-07   -796.86743            0   -796.86743        14044 
     915 3.4776375e-08   -796.86743            0   -796.86743    14043.997 
     916 1.8999466e-08   -796.86743            0   -796.86743    14043.996 
     917 2.2819379e-08   -796.86743            0   -796.86743    14043.995 
     918 2.6975656e-08   -796.86743            0   -796.86743    14043.994 
     919 3.1460001e-08   -796.86743            0   -796.86743    14043.993 
     920 3.6266334e-08   -796.86743            0   -796.86743    14043.991 
     921 4.1387922e-08   -796.86743            0   -796.86743     14043.99 
     922 4.6817661e-08   -796.86743            0   -796.86743    14043.988 
     923 5.2547952e-08   -796.86743            0   -796.86743    14043.987 
     924 5.8570804e-08   -796.86744            0   -796.86744    14043.985 
     925 6.4877768e-08   -796.86744            0   -796.86744    14043.983 
     926 7.1460038e-08   -796.86744            0   -796.86744    14043.982 
     927 7.8308363e-08   -796.86744            0   -796.86744     14043.98 
     928  8.54132e-08   -796.86744            0   -796.86744    14043.978 
     929 9.2764535e-08   -796.86744            0   -796.86744    14043.976 
     930 1.0035222e-07   -796.86744            0   -796.86744    14043.973 
     931 1.0816541e-07   -796.86744            0   -796.86744    14043.971 
     932 1.1619373e-07   -796.86744            0   -796.86744    14043.969 
     933 1.2442498e-07   -796.86744            0   -796.86744    14043.966 
     934 1.3285088e-07   -796.86744            0   -796.86744    14043.964 
     935 1.4145679e-07   -796.86744            0   -796.86744    14043.961 
     936 1.5027696e-07   -796.86744            0   -796.86744    14043.958 
     937 1.5949597e-07   -796.86745            0   -796.86745    14043.956 
     938 1.7159167e-07   -796.86745            0   -796.86745    14043.952 
     939 2.1019944e-07   -796.86745            0   -796.86745    14043.952 
     940 5.041494e-07   -796.86745            0   -796.86745    14043.939 
     941 1.1808596e-06   -796.86745            0   -796.86745    14043.956 
     942 8.1029577e-08   -796.86745            0   -796.86745    14043.951 
     943 5.5432958e-08   -796.86745            0   -796.86745    14043.947 
     944 1.9208586e-08   -796.86745            0   -796.86745    14043.945 
     945 9.8119104e-09   -796.86745            0   -796.86745    14043.944 
     946 1.1163217e-08   -796.86745            0   -796.86745    14043.943 
     947 1.3605966e-08   -796.86745            0   -796.86745    14043.942 
     948 1.6296639e-08   -796.86745            0   -796.86745    14043.941 
     949 1.9218765e-08   -796.86745            0   -796.86745     14043.94 
     950 2.2368513e-08   -796.86745            0   -796.86745    14043.939 
     951 2.5741702e-08   -796.86745            0   -796.86745    14043.938 
     952 2.9333847e-08   -796.86745            0   -796.86745    14043.937 
     953 3.3140155e-08   -796.86745            0   -796.86745    14043.936 
     954 3.7155541e-08   -796.86745            0   -796.86745    14043.935 
     955 4.1374629e-08   -796.86745            0   -796.86745    14043.933 
     956 4.5791769e-08   -796.86745            0   -796.86745    14043.932 
     957 5.0401037e-08   -796.86745            0   -796.86745     14043.93 
     958 5.5196257e-08   -796.86746            0   -796.86746    14043.929 
     959 6.0170997e-08   -796.86746            0   -796.86746    14043.927 
     960  6.53186e-08   -796.86746            0   -796.86746    14043.925 
     961 7.0632165e-08   -796.86746            0   -796.86746    14043.923 
     962 7.6104611e-08   -796.86746            0   -796.86746    14043.921 
     963 8.1728586e-08   -796.86746            0   -796.86746    14043.919 
     964  8.74967e-08   -796.86746            0   -796.86746    14043.917 
     965 9.3401047e-08   -796.86746            0   -796.86746    14043.915 
     966 9.9434442e-08   -796.86746            0   -796.86746    14043.913 
     967 1.0558763e-07   -796.86746            0   -796.86746    14043.911 
     968 1.1186021e-07   -796.86746            0   -796.86746    14043.908 
     969 1.1826072e-07   -796.86746            0   -796.86746    14043.906 
     970 1.2515475e-07   -796.86746            0   -796.86746    14043.903 
     971 1.3629597e-07   -796.86747            0   -796.86747    14043.902 
     972 2.0091098e-07   -796.86747            0   -796.86747    14043.895 
     973 7.2485167e-07   -796.86747            0   -796.86747    14043.906 
     974 3.8778426e-07   -796.86747            0   -796.86747    14043.895 
     975 9.0152613e-09   -796.86747            0   -796.86747    14043.895 
     976 1.0668707e-08   -796.86747            0   -796.86747    14043.894 
     977 1.2621373e-08   -796.86747            0   -796.86747    14043.893 
     978 1.4732917e-08   -796.86747            0   -796.86747    14043.892 
     979 1.6997868e-08   -796.86747            0   -796.86747    14043.892 
     980 1.9413556e-08   -796.86747            0   -796.86747    14043.891 
     981 2.1976706e-08   -796.86747            0   -796.86747     14043.89 
     982 2.4684167e-08   -796.86747            0   -796.86747    14043.889 
     983 2.7532355e-08   -796.86747            0   -796.86747    14043.887 
     984 3.0517734e-08   -796.86747            0   -796.86747    14043.886 
     985 3.3636329e-08   -796.86747            0   -796.86747    14043.885 
     986 3.6884325e-08   -796.86747            0   -796.86747    14043.884 
     987 4.0257275e-08   -796.86747            0   -796.86747    14043.882 
     988 4.3751322e-08   -796.86747            0   -796.86747    14043.881 
     989 4.7361242e-08   -796.86747            0   -796.86747    14043.879 
     990 5.1084315e-08   -796.86747            0   -796.86747    14043.878 
     991 5.4914261e-08   -796.86747            0   -796.86747    14043.876 
     992 5.8863585e-08   -796.86747            0   -796.86747    14043.874 
     993 6.297501e-08   -796.86748            0   -796.86748    14043.873 
     994 6.775287e-08   -796.86748            0   -796.86748     14043.87 
     995 7.6734876e-08   -796.86748            0   -796.86748     14043.87 
     996 1.2026046e-07   -796.86748            0   -796.86748    14043.864 
     997 3.6084224e-07   -796.86748            0   -796.86748    14043.872 
     998 3.3684306e-07   -796.86748            0   -796.86748    14043.861 
     999 3.3024325e-08   -796.86748            0   -796.86748    14043.864 
    1000 6.2676088e-09   -796.86748            0   -796.86748    14043.864 
    1001 7.4609973e-09   -796.86748            0   -796.86748    14043.863 
    1002 8.8753061e-09   -796.86748            0   -796.86748    14043.862 
    1003 1.0407715e-08   -796.86748            0   -796.86748    14043.862 
    1004 1.2055383e-08   -796.86748            0   -796.86748    14043.861 
    1005 1.3816363e-08   -796.86748            0   -796.86748     14043.86 
    1006 1.5688419e-08   -796.86748            0   -796.86748    14043.859 
    1007 1.7669266e-08   -796.86748            0   -796.86748    14043.858 
    1008 1.9756411e-08   -796.86748            0   -796.86748    14043.857 
    1009 2.1947288e-08   -796.86748            0   -796.86748    14043.856 
    1010 2.4239134e-08   -796.86748            0   -796.86748    14043.855 
    1011 2.6629135e-08   -796.86748            0   -796.86748    14043.854 
    1012 2.9114249e-08   -796.86748            0   -796.86748    14043.853 
    1013 3.1691479e-08   -796.86748            0   -796.86748    14043.852 
    1014 3.4357442e-08   -796.86748            0   -796.86748     14043.85 
    1015 3.7109174e-08   -796.86748            0   -796.86748    14043.849 
    1016 3.9942673e-08   -796.86748            0   -796.86748    14043.848 
    1017 4.2856523e-08   -796.86749            0   -796.86749    14043.846 
    1018 4.5847369e-08   -796.86749            0   -796.86749    14043.845 
    1019 4.8946517e-08   -796.86749            0   -796.86749    14043.843 
    1020 5.2329303e-08   -796.86749            0   -796.86749    14043.842 
    1021 5.7777737e-08   -796.86749            0   -796.86749    14043.839 
    1022 8.0698859e-08   -796.86749            0   -796.86749     14043.84 
    1023 2.3457835e-07   -796.86749            0   -796.86749    14043.831 
[...]
    2065 5.8003822e-07   -796.84597            0   -796.84597    14091.869 
    2066 6.2749919e-07   -796.84598            0   -796.84598    14091.865 
    2067 6.7703424e-07   -796.84598            0   -796.84598    14091.861 
    2068 7.2869194e-07   -796.84598            0   -796.84598    14091.857 
    2069 7.8247449e-07   -796.84598            0   -796.84598    14091.853 
    2070 8.3862102e-07   -796.84599            0   -796.84599    14091.848 
    2071 8.9769415e-07   -796.84599            0   -796.84599    14091.843 
    2072 9.7023531e-07   -796.84599            0   -796.84599     14091.84 
    2073 1.1652484e-06   -796.84599            0   -796.84599    14091.828 
    2074 2.8672711e-06   -796.84599            0   -796.84599    14091.848 
    2075 1.1989621e-05     -796.846            0     -796.846    14091.783 
    2076 8.5169696e-07     -796.846            0     -796.846    14091.798 
    2077 7.3489766e-07     -796.846            0     -796.846    14091.811 
    2078 3.0393572e-07     -796.846            0     -796.846     14091.82 
    2079 7.1541177e-08     -796.846            0     -796.846    14091.822 
    2080 5.5194187e-08     -796.846            0     -796.846    14091.821 
    2081 6.6693418e-08     -796.846            0     -796.846     14091.82 
    2082 8.0088244e-08     -796.846            0     -796.846    14091.819 
    2083 9.4720216e-08     -796.846            0     -796.846    14091.817 
    2084 1.1059197e-07     -796.846            0     -796.846    14091.816 
    2085 1.2770729e-07     -796.846            0     -796.846    14091.814 
    2086 1.4607004e-07     -796.846            0     -796.846    14091.812 
    2087 1.6568444e-07     -796.846            0     -796.846     14091.81 
    2088 1.8655489e-07   -796.84601            0   -796.84601    14091.808 
    2089 2.0868607e-07   -796.84601            0   -796.84601    14091.806 
    2090 2.3208286e-07   -796.84601            0   -796.84601    14091.803 
    2091 2.567504e-07   -796.84601            0   -796.84601    14091.801 
    2092 2.8269403e-07   -796.84601            0   -796.84601    14091.798 
    2093 3.0991937e-07   -796.84601            0   -796.84601    14091.795 
    2094 3.3843216e-07   -796.84601            0   -796.84601    14091.792 
    2095 3.6823855e-07   -796.84601            0   -796.84601    14091.789 
    2096 3.9934463e-07   -796.84602            0   -796.84602    14091.786 
    2097 4.3175733e-07   -796.84602            0   -796.84602    14091.783 
    2098 4.6548257e-07   -796.84602            0   -796.84602    14091.779 
    2099 5.0052962e-07   -796.84602            0   -796.84602    14091.776 
    2100 5.3690083e-07   -796.84602            0   -796.84602    14091.772 
    2101 5.7462238e-07   -796.84603            0   -796.84603    14091.768 
    2102 6.1369003e-07   -796.84603            0   -796.84603    14091.764 
    2103 6.5459006e-07   -796.84603            0   -796.84603     14091.76 
    2104 7.0090048e-07   -796.84603            0   -796.84603    14091.755 
    2105 8.0711761e-07   -796.84603            0   -796.84603    14091.755 
    2106 1.6855997e-06   -796.84604            0   -796.84604    14091.733 
    2107 7.1706289e-06   -796.84604            0   -796.84604    14091.777 
    2108 3.7425758e-07   -796.84604            0   -796.84604    14091.767 
    2109 3.899465e-07   -796.84604            0   -796.84604    14091.756 
    2110 2.4122628e-07   -796.84604            0   -796.84604    14091.747 
    2111 7.0823419e-08   -796.84604            0   -796.84604    14091.743 
    2112 3.4479284e-08   -796.84604            0   -796.84604    14091.741 
    2113 3.9473695e-08   -796.84604            0   -796.84604     14091.74 
    2114 4.7884788e-08   -796.84604            0   -796.84604    14091.739 
    2115 5.713211e-08   -796.84604            0   -796.84604    14091.738 
    2116 6.7192274e-08   -796.84604            0   -796.84604    14091.736 
    2117 7.8063692e-08   -796.84604            0   -796.84604    14091.735 
    2118 8.9744911e-08   -796.84604            0   -796.84604    14091.734 
    2119 1.0223427e-07   -796.84604            0   -796.84604    14091.732 
    2120   1.1553e-07   -796.84604            0   -796.84604     14091.73 
    2121 1.2963018e-07   -796.84604            0   -796.84604    14091.728 
    2122 1.4453276e-07   -796.84605            0   -796.84605    14091.727 
    2123 1.6023553e-07   -796.84605            0   -796.84605    14091.724 
    2124 1.7673617e-07   -796.84605            0   -796.84605    14091.722 
    2125 1.940322e-07   -796.84605            0   -796.84605     14091.72 
    2126 2.1212103e-07   -796.84605            0   -796.84605    14091.718 
    2127 2.3099988e-07   -796.84605            0   -796.84605    14091.715 
    2128  2.50666e-07   -796.84605            0   -796.84605    14091.713 
    2129 2.7111625e-07   -796.84605            0   -796.84605     14091.71 
    2130 2.9234798e-07   -796.84606            0   -796.84606    14091.707 
    2131 3.1435714e-07   -796.84606            0   -796.84606    14091.704 
    2132 3.3714313e-07   -796.84606            0   -796.84606    14091.701 
    2133 3.6069803e-07   -796.84606            0   -796.84606    14091.698 
    2134 3.8505243e-07   -796.84606            0   -796.84606    14091.695 
    2135 4.1030502e-07   -796.84606            0   -796.84606    14091.691 
    2136 4.3843764e-07   -796.84607            0   -796.84607    14091.689 
    2137 4.9168525e-07   -796.84607            0   -796.84607    14091.682 
    2138 8.7682016e-07   -796.84607            0   -796.84607     14091.69 
    2139 3.5994565e-06   -796.84607            0   -796.84607    14091.654 
    2140 4.5899422e-07   -796.84607            0   -796.84607    14091.665 
    2141 2.8418409e-07   -796.84607            0   -796.84607    14091.674 
    2142 5.2364109e-08   -796.84607            0   -796.84607    14091.676 
    2143 2.5714104e-08   -796.84607            0   -796.84607    14091.676 
    2144 3.0819897e-08   -796.84607            0   -796.84607    14091.675 
    2145 3.6770237e-08   -796.84607            0   -796.84607    14091.674 
    2146 4.3237911e-08   -796.84607            0   -796.84607    14091.673 
    2147 5.0220211e-08   -796.84607            0   -796.84607    14091.672 
    2148 5.7714063e-08   -796.84607            0   -796.84607    14091.671 
    2149 6.5716334e-08   -796.84607            0   -796.84607     14091.67 
    2150 7.4223575e-08   -796.84608            0   -796.84608    14091.668 
    2151 8.3232166e-08   -796.84608            0   -796.84608    14091.667 
    2152 9.2738208e-08   -796.84608            0   -796.84608    14091.665 
    2153 1.0273763e-07   -796.84608            0   -796.84608    14091.663 
    2154 1.1322608e-07   -796.84608            0   -796.84608    14091.662 
    2155 1.2419907e-07   -796.84608            0   -796.84608     14091.66 
    2156 1.3565177e-07   -796.84608            0   -796.84608    14091.658 
    2157 1.4757938e-07   -796.84608            0   -796.84608    14091.656 
    2158 1.5997652e-07   -796.84608            0   -796.84608    14091.654 
    2159 1.7283835e-07   -796.84608            0   -796.84608    14091.652 
    2160 1.8615841e-07   -796.84608            0   -796.84608     14091.65 
    2161 1.9993409e-07   -796.84609            0   -796.84609    14091.647 
    2162 2.1415719e-07   -796.84609            0   -796.84609    14091.645 
    2163 2.2887202e-07   -796.84609            0   -796.84609    14091.642 
    2164 2.4432992e-07   -796.84609            0   -796.84609    14091.639 
    2165 2.6389258e-07   -796.84609            0   -796.84609    14091.638 
    2166 3.2401698e-07   -796.84609            0   -796.84609    14091.631 
    2167 8.2407034e-07   -796.84609            0   -796.84609    14091.642 
    2168 1.9155827e-06   -796.84609            0   -796.84609    14091.616 
    2169 6.0956716e-08   -796.84609            0   -796.84609     14091.62 
    2170 6.511724e-08   -796.84609            0   -796.84609    14091.624 
    2171 4.3865725e-08   -796.84609            0   -796.84609    14091.627 
    2172 1.9087462e-08   -796.84609            0   -796.84609    14091.628 
    2173 1.2364222e-08   -796.84609            0   -796.84609    14091.628 
    2174 1.4159125e-08    -796.8461            0    -796.8461    14091.628 
    2175 1.7365767e-08    -796.8461            0    -796.8461    14091.627 
    2176 2.0942424e-08    -796.8461            0    -796.8461    14091.627 
    2177 2.4847216e-08    -796.8461            0    -796.8461    14091.626 
    2178 2.9077492e-08    -796.8461            0    -796.8461    14091.625 
    2179 3.3630558e-08    -796.8461            0    -796.8461    14091.624 
    2180 3.8503481e-08    -796.8461            0    -796.8461    14091.623 
    2181 4.3693117e-08    -796.8461            0    -796.8461    14091.622 
    2182 4.9196104e-08    -796.8461            0    -796.8461    14091.621 
    2183 5.5008871e-08    -796.8461            0    -796.8461     14091.62 
    2184 6.1127636e-08    -796.8461            0    -796.8461    14091.618 
    2185 6.7548414e-08    -796.8461            0    -796.8461    14091.617 
    2186 7.426702e-08    -796.8461            0    -796.8461    14091.616 
    2187 8.1279079e-08    -796.8461            0    -796.8461    14091.614 
    2188 8.8580022e-08    -796.8461            0    -796.8461    14091.613 
    2189 9.6165113e-08    -796.8461            0    -796.8461    14091.611 
    2190 1.0402942e-07    -796.8461            0    -796.8461    14091.609 
    2191 1.121679e-07   -796.84611            0   -796.84611    14091.608 
    2192 1.2057524e-07   -796.84611            0   -796.84611    14091.606 
    2193 1.292463e-07   -796.84611            0   -796.84611    14091.604 
    2194 1.381751e-07   -796.84611            0   -796.84611    14091.602 
    2195 1.4735821e-07   -796.84611            0   -796.84611      14091.6 
    2196 1.5679167e-07   -796.84611            0   -796.84611    14091.598 
    2197 1.6655413e-07   -796.84611            0   -796.84611    14091.596 
    2198 1.7746094e-07   -796.84611            0   -796.84611    14091.593 
    2199 2.0169068e-07   -796.84611            0   -796.84611    14091.593 
    2200 4.0521303e-07   -796.84611            0   -796.84611    14091.582 
    2201 1.2818289e-06   -796.84612            0   -796.84612    14091.601 
    2202 1.0212291e-08   -796.84612            0   -796.84612    14091.599 
    2203 2.0705451e-08   -796.84612            0   -796.84612    14091.597 
    2204 3.0287344e-08   -796.84612            0   -796.84612    14091.594 
    2205 3.1945811e-08   -796.84612            0   -796.84612    14091.591 
    2206 2.1303325e-08   -796.84612            0   -796.84612    14091.588 
    2207 9.7985072e-09   -796.84612            0   -796.84612    14091.587 
    2208 7.0766063e-09   -796.84612            0   -796.84612    14091.586 
    2209 8.2910489e-09   -796.84612            0   -796.84612    14091.586 
    2210 1.017529e-08   -796.84612            0   -796.84612    14091.585 
    2211 1.2267496e-08   -796.84612            0   -796.84612    14091.585 
    2212 1.4549918e-08   -796.84612            0   -796.84612    14091.584 
    2213 1.7020642e-08   -796.84612            0   -796.84612    14091.583 
    2214 1.9677581e-08   -796.84612            0   -796.84612    14091.583 
    2215 2.2518487e-08   -796.84612            0   -796.84612    14091.582 
    2216 2.5540947e-08   -796.84612            0   -796.84612    14091.581 
    2217 2.8742385e-08   -796.84612            0   -796.84612     14091.58 
    2218 3.212007e-08   -796.84612            0   -796.84612    14091.579 
    2219 3.5671112e-08   -796.84612            0   -796.84612    14091.578 
    2220 3.9392475e-08   -796.84612            0   -796.84612    14091.577 
    2221 4.3280973e-08   -796.84612            0   -796.84612    14091.576 
    2222 4.7333278e-08   -796.84612            0   -796.84612    14091.575 
    2223 5.1545927e-08   -796.84612            0   -796.84612    14091.574 
    2224 5.5915322e-08   -796.84612            0   -796.84612    14091.573 
    2225 6.043775e-08   -796.84612            0   -796.84612    14091.571 
    2226 6.5109357e-08   -796.84612            0   -796.84612     14091.57 
    2227 6.9926233e-08   -796.84613            0   -796.84613    14091.569 
    2228 7.4884247e-08   -796.84613            0   -796.84613    14091.567 
    2229 7.9979533e-08   -796.84613            0   -796.84613    14091.566 
    2230 8.5207616e-08   -796.84613            0   -796.84613    14091.564 
    2231 9.0570229e-08   -796.84613            0   -796.84613    14091.563 
    2232 9.6102772e-08   -796.84613            0   -796.84613    14091.561 
    2233 1.0241115e-07   -796.84613            0   -796.84613     14091.56 
    2234 1.177251e-07   -796.84613            0   -796.84613    14091.556 
    2235 2.5588364e-07   -796.84613            0   -796.84613    14091.561 
    2236 6.2071009e-07   -796.84613            0   -796.84613    14091.547 
    2237 2.3701845e-09   -796.84613            0   -796.84613    14091.547 
    2238 6.2681956e-09   -796.84613            0   -796.84613    14091.548 
    2239 1.0655266e-08   -796.84613            0   -796.84613     14091.55 
    2240 1.2947427e-08   -796.84613            0   -796.84613    14091.551 
    2241  1.05541e-08   -796.84613            0   -796.84613    14091.553 
    2242 5.8051274e-09   -796.84613            0   -796.84613    14091.554 
    2243 3.8101553e-09   -796.84613            0   -796.84613    14091.554 
    2244 4.1832353e-09   -796.84613            0   -796.84613    14091.554 
    2245 5.1628561e-09   -796.84613            0   -796.84613    14091.553 
    2246 6.2869798e-09   -796.84613            0   -796.84613    14091.553 
    2247 7.5191071e-09   -796.84613            0   -796.84613    14091.552 
    2248 8.8574939e-09   -796.84613            0   -796.84613    14091.552 
    2249 1.0300789e-08   -796.84613            0   -796.84613    14091.551 
    2250 1.1847526e-08   -796.84613            0   -796.84613    14091.551 
    2251 1.349613e-08   -796.84613            0   -796.84613     14091.55 
    2252 1.5244914e-08   -796.84613            0   -796.84613     14091.55 
    2253 1.7092088e-08   -796.84614            0   -796.84614    14091.549 
    2254 1.9035754e-08   -796.84614            0   -796.84614    14091.548 
    2255 2.1073918e-08   -796.84614            0   -796.84614    14091.548 
    2256 2.3204481e-08   -796.84614            0   -796.84614    14091.547 
    2257 2.5425254e-08   -796.84614            0   -796.84614    14091.546 
    2258 2.7733955e-08   -796.84614            0   -796.84614    14091.545 
    2259 3.0128212e-08   -796.84614            0   -796.84614    14091.544 
    2260 3.2605572e-08   -796.84614            0   -796.84614    14091.543 
    2261 3.5163502e-08   -796.84614            0   -796.84614    14091.542 
    2262 3.7799393e-08   -796.84614            0   -796.84614    14091.541 
    2263 4.0510574e-08   -796.84614            0   -796.84614     14091.54 
    2264 4.3294296e-08   -796.84614            0   -796.84614    14091.539 
    2265 4.6147825e-08   -796.84614            0   -796.84614    14091.538 
    2266 4.9068418e-08   -796.84614            0   -796.84614    14091.537 
    2267 5.2055973e-08   -796.84614            0   -796.84614    14091.536 
    2268 5.5135824e-08   -796.84614            0   -796.84614    14091.534 
    2269 5.871508e-08   -796.84614            0   -796.84614    14091.533 
    2270 6.8916966e-08   -796.84614            0   -796.84614     14091.53 
    2271 1.6982195e-07   -796.84614            0   -796.84614    14091.535 
    2272 2.5559805e-07   -796.84614            0   -796.84614    14091.526 
    2273 3.8475411e-09   -796.84614            0   -796.84614    14091.527 
    2274 4.8720542e-09   -796.84614            0   -796.84614    14091.528 
    2275 4.1892889e-09   -796.84614            0   -796.84614    14091.529 
    2276 2.6036678e-09   -796.84614            0   -796.84614    14091.529 
    2277 1.9207045e-09   -796.84615            0   -796.84615    14091.529 
    2278 2.1512834e-09   -796.84615            0   -796.84615    14091.529 
    2279 2.6671305e-09   -796.84615            0   -796.84615    14091.529 
    2280 3.2625761e-09   -796.84615            0   -796.84615    14091.529 
    2281 3.9165652e-09   -796.84615            0   -796.84615    14091.528 
    2282 4.6279093e-09   -796.84615            0   -796.84615    14091.528 
    2283 5.3957856e-09   -796.84615            0   -796.84615    14091.528 
    2284 6.2193008e-09   -796.84615            0   -796.84615    14091.527 
    2285 7.0974936e-09   -796.84615            0   -796.84615    14091.527 
    2286 8.0293355e-09   -796.84615            0   -796.84615    14091.526 
    2287 9.0137324e-09   -796.84615            0   -796.84615    14091.526 
    2288 1.0049526e-08   -796.84615            0   -796.84615    14091.525 
    2289 1.1135497e-08   -796.84615            0   -796.84615    14091.525 
    2290 1.2270364e-08   -796.84615            0   -796.84615    14091.524 
    2291 1.345279e-08   -796.84615            0   -796.84615    14091.524 
    2292 1.4681379e-08   -796.84615            0   -796.84615    14091.523 
    2293 1.5954684e-08   -796.84615            0   -796.84615    14091.522 
    2294 1.7271207e-08   -796.84615            0   -796.84615    14091.522 
    2295  1.86294e-08   -796.84615            0   -796.84615    14091.521 
    2296 2.0027672e-08   -796.84615            0   -796.84615     14091.52 
    2297 2.1464391e-08   -796.84615            0   -796.84615    14091.519 
    2298 2.293788e-08   -796.84615            0   -796.84615    14091.518 
    2299 2.4446443e-08   -796.84615            0   -796.84615    14091.518 
    2300 2.5988325e-08   -796.84615            0   -796.84615    14091.517 
    2301 2.7561809e-08   -796.84615            0   -796.84615    14091.516 
    2302 2.9165112e-08   -796.84615            0   -796.84615    14091.515 
    2303 3.0797638e-08   -796.84615            0   -796.84615    14091.514 
    2304 3.2474473e-08   -796.84615            0   -796.84615    14091.513 
    2305 3.4487365e-08   -796.84615            0   -796.84615    14091.512 
    2306 4.2236299e-08   -796.84615            0   -796.84615    14091.513 
    2307 8.9116021e-08   -796.84615            0   -796.84615    14091.507 
    2308 2.0205582e-10   -796.84615            0   -796.84615    14091.507 
Loop time of 421.229 on 16 procs for 842 steps with 127 atoms

99.2% CPU use with 16 MPI tasks x no OpenMP threads

Minimization stats:
  Stopping criterion = energy tolerance
  Energy initial, next-to-last, final = 
        -796.867550981     -796.846154547      -796.84615455
  Force two-norm initial, final = 5.54843e-06 6.86856e-05
  Force max component initial, final = 1.83811e-06 2.14177e-05
  Final line search alpha, max atom move = 0 0
  Iterations, force evaluations = 842 842

MPI task timing breakdown:
Section |  min time  |  avg time  |  max time  |%varavg| %total
---------------------------------------------------------------
Pair    | 232.19     | 256.07     | 271.3      |  51.1 | 60.79
Neigh   | 0          | 0          | 0          |   0.0 |  0.00
Comm    | 0.060033   | 15.295     | 39.177     | 209.1 |  3.63
Output  | 0.12819    | 0.13045    | 0.13432    |   0.4 |  0.03
Modify  | 139.48     | 139.49     | 139.49     |   0.0 | 33.11
Other   |            | 10.25      |            |       |  2.43

Nlocal:    7.9375 ave 8 max 7 min
Histogram: 1 0 0 0 0 0 0 0 0 15
Nghost:    817.062 ave 821 max 816 min
Histogram: 12 0 0 0 0 0 0 0 3 1
Neighs:    0 ave 0 max 0 min
Histogram: 16 0 0 0 0 0 0 0 0 0
FullNghs:  1602.88 ave 1631 max 1408 min
Histogram: 1 0 0 0 0 0 0 0 2 13

Total # of neighbors = 25646
Ave neighs/atom = 201.937
Neighbor list builds = 0
Dangerous builds = 0
Total wall time: 0:19:23
