LAMMPS (12 Dec 2018)
Processor partition = 3
Reading data file ...
  orthogonal box = (0 0 0) to (10.0025 12.3537 10.615)
  2 by 4 by 2 MPI processor grid
  reading atoms ...
  127 atoms
Reading potential file lammps-force.nnp with DATE: 20201105
Neighbor list info ...
  update every 1 steps, delay 0 steps, check yes
  max neighbors/atom: 2000, page size: 100000
  master list distance cutoff = 8
  ghost atom cutoff = 8
  binsize = 4, bins = 3 4 3
  1 neighbor lists, perpetual/occasional/extra = 1 0 0
  (1) pair nnp3v, perpetual
      attributes: full, newton on
      pair build: full/bin/atomonly
      stencil: full/bin/3d
      bin: standard
Setting up quickmin style minimization ...
  Unit style    : metal
  Current step  : 0
Per MPI rank memory allocation (min/avg/max) = 2.736 | 2.736 | 2.736 Mbytes
Step Temp E_pair E_mol TotEng Press 
       0            0   -796.68047            0   -796.68047     13401.66 
       6  0.092325754   -796.68154            0   -796.68004    13408.421 
Loop time of 2.27684 on 16 procs for 6 steps with 127 atoms

98.7% CPU use with 16 MPI tasks x no OpenMP threads

Minimization stats:
  Stopping criterion = energy tolerance
  Energy initial, next-to-last, final = 
        -796.680469343     -796.681189813     -796.681544239
  Force two-norm initial, final = 0.292034 0.283352
  Force max component initial, final = 0.0445202 0.0435203
  Final line search alpha, max atom move = 0 0
  Iterations, force evaluations = 6 6

MPI task timing breakdown:
Section |  min time  |  avg time  |  max time  |%varavg| %total
---------------------------------------------------------------
Pair    | 1.9083     | 2.1689     | 2.2758     |   5.3 | 95.26
Neigh   | 0          | 0          | 0          |   0.0 |  0.00
Comm    | 0.00055408 | 0.10746    | 0.36811    |  23.7 |  4.72
Output  | 0          | 0          | 0          |   0.0 |  0.00
Modify  | 0          | 0          | 0          |   0.0 |  0.00
Other   |            | 0.0004834  |            |       |  0.02

Nlocal:    7.9375 ave 8 max 7 min
Histogram: 1 0 0 0 0 0 0 0 0 15
Nghost:    819.812 ave 824 max 816 min
Histogram: 4 0 0 0 0 8 0 1 1 2
Neighs:    0 ave 0 max 0 min
Histogram: 16 0 0 0 0 0 0 0 0 0
FullNghs:  1602 ave 1623 max 1420 min
Histogram: 1 0 0 0 0 0 0 0 1 14

Total # of neighbors = 25632
Ave neighs/atom = 201.827
Neighbor list builds = 0
Dangerous builds = 0
Setting up quickmin style minimization ...
  Unit style    : metal
  Current step  : 0
Per MPI rank memory allocation (min/avg/max) = 4.736 | 4.737 | 4.737 Mbytes
Step Temp E_pair E_mol TotEng Press 
       0            0   -793.30154            0   -793.30154    20154.804 
       1    12.345346   -793.30154            0   -793.10048    20318.535 
       2     50.45904   -793.66959            0   -792.84777    20450.682 
       3    105.05553    -794.2593            0   -792.54829    20483.812 
       4    151.27919   -794.83523            0   -792.37137    20300.509 
       5    173.96286   -795.26686            0   -792.43357    19684.101 
       6    176.81958    -795.5594            0   -792.67958    18499.012 
       7    149.78538   -795.75477            0   -793.31525     16851.78 
       8    140.38255   -795.89127            0   -793.60489    15751.023 
       9    137.64207   -795.99107            0   -793.74932    15258.091 
      10    133.00436   -796.06504            0   -793.89883    14861.024 
      11    94.565342   -796.11027            0    -794.5701    14335.096 
      12    1.1460654   -796.11441            0   -796.09574    13062.178 
      13    1.6072796   -796.11928            0   -796.09311    13034.495 
      14    2.3610464    -796.1253            0   -796.08685    13016.343 
      15    3.0164372   -796.13204            0   -796.08291    13006.862 
      16    3.5948483   -796.13919            0   -796.08064    13000.802 
      17    4.1978709   -796.14668            0   -796.07831    12996.692 
      18    4.8291753   -796.15444            0   -796.07579     12994.29 
      19    5.4829326   -796.16239            0   -796.07309    12993.497 
      20    6.1530913   -796.17047            0   -796.07025    12994.302 
      21    6.8336232   -796.17859            0    -796.0673    12996.761 
      22    7.5181109   -796.18672            0   -796.06427    13000.891 
      23    8.1998994   -796.19479            0   -796.06124    13006.737 
      24    8.8719602   -796.20274            0   -796.05825    13014.245 
      25    9.5272798   -796.21055            0   -796.05538    13023.372 
      26    10.158674   -796.21817            0   -796.05272    13033.991 
      27    10.759188   -796.22556            0   -796.05033    13045.972 
      28    11.322243   -796.23271            0    -796.0483    13059.123 
      29    11.842406   -796.23957            0    -796.0467    13073.291 
      30     12.31405   -796.24614            0   -796.04558     13088.22 
      31    12.736848   -796.25239            0   -796.04495     13103.87 
      32    13.098186   -796.25833            0     -796.045    13119.412 
      33     13.41503   -796.26392            0   -796.04544    13136.468 
      34    13.284152   -796.26911            0   -796.05275    13142.873 
      35     9.018242   -796.27282            0   -796.12594    13111.671 
      36  0.078141221   -796.27314            0   -796.27187    12989.967 
      37   0.12083133   -796.27354            0   -796.27157     12987.68 
      38    0.1875692   -796.27405            0   -796.27099    12986.952 
      39   0.25534338   -796.27465            0   -796.27049    12988.142 
      40   0.31130633   -796.27531            0   -796.27024    12990.349 
      41    0.3682865   -796.27602            0   -796.27002        12993 
      42   0.42864488   -796.27679            0   -796.26981    12995.883 
      43   0.49249147    -796.2776            0   -796.26958     12998.96 
      44   0.55962355   -796.27846            0   -796.26935    13002.221 
      45   0.62975277   -796.27936            0   -796.26911    13005.661 
      46   0.70258106    -796.2803            0   -796.26886    13009.269 
      47   0.77780365   -796.28128            0   -796.26861    13013.035 
      48   0.85511057   -796.28229            0   -796.26836    13016.944 
      49   0.93419008   -796.28332            0   -796.26811    13020.984 
      50    1.0147301   -796.28438            0   -796.26785    13025.138 
      51    1.0964225   -796.28546            0    -796.2676    13029.388 
      52     1.178964   -796.28655            0   -796.26735    13033.715 
      53    1.2620584   -796.28766            0   -796.26711    13038.092 
      54    1.3454143   -796.28878            0   -796.26687      13042.5 
      55    1.4287563   -796.28991            0   -796.26664    13046.923 
      56    1.5118265   -796.29104            0   -796.26642    13051.342 
      57    1.5943747   -796.29217            0   -796.26621    13055.736 
      58    1.6761653    -796.2933            0     -796.266    13060.074 
      59    1.7569841   -796.29443            0   -796.26581    13064.334 
      60    1.8366286   -796.29554            0   -796.26563    13068.486 
      61    1.9149378   -796.29665            0   -796.26546    13072.509 
      62     1.991726   -796.29774            0    -796.2653    13076.381 
      63    2.0668853   -796.29882            0   -796.26516    13080.086 
      64    2.1401823   -796.29988            0   -796.26503    13083.588 
      65    2.2114671   -796.30093            0   -796.26491    13086.888 
      66    2.2764838   -796.30195            0   -796.26487    13089.765 
      67    2.2861829   -796.30294            0    -796.2657    13092.077 
      68    1.5942783   -796.30373            0   -796.27777    13083.055 
      69  0.048567875   -796.30386            0   -796.30307    13063.351 
      70   0.09549194   -796.30404            0   -796.30249    13064.506 
      71   0.10929405   -796.30423            0   -796.30245    13064.943 
      72    0.1252526   -796.30444            0    -796.3024    13065.423 
      73   0.14214083   -796.30466            0   -796.30235    13065.918 
      74   0.15990906   -796.30489            0   -796.30229    13066.423 
      75   0.17851293   -796.30513            0   -796.30223    13066.936 
      76   0.19790719   -796.30539            0   -796.30217    13067.452 
      77   0.21804499   -796.30565            0    -796.3021    13067.967 
      78    0.2388784   -796.30593            0   -796.30204    13068.475 
      79   0.26035847   -796.30621            0   -796.30197    13068.973 
      80   0.28243538    -796.3065            0    -796.3019    13069.455 
      81   0.30505892    -796.3068            0   -796.30183    13069.917 
      82   0.32817884   -796.30711            0   -796.30176    13070.353 
      83   0.35174382   -796.30742            0   -796.30169    13070.755 
      84   0.37570278   -796.30774            0   -796.30162    13071.116 
      85   0.40000468   -796.30807            0   -796.30155    13071.434 
      86   0.42459953    -796.3084            0   -796.30148    13071.703 
      87   0.44943779   -796.30873            0   -796.30141    13071.918 
      88   0.47447015   -796.30907            0   -796.30134    13072.073 
      89   0.49964822   -796.30941            0   -796.30127    13072.158 
      90   0.52492123   -796.30975            0    -796.3012    13072.172 
      91   0.55022609    -796.3101            0   -796.30114    13072.107 
      92   0.57537867   -796.31044            0   -796.30107    13071.962 
      93   0.59922785   -796.31079            0   -796.30103    13071.702 
      94   0.61182181   -796.31113            0   -796.30117    13071.241 
      95   0.52910196   -796.31145            0   -796.30283      13069.4 
      96   0.14147919    -796.3116            0    -796.3093    13063.969 
      97  0.013198071   -796.31165            0   -796.31143    13062.135 
      98   0.02067041    -796.3117            0   -796.31137    13062.077 
      99   0.02635642   -796.31177            0   -796.31134     13061.98 
     100  0.031697538   -796.31184            0   -796.31132     13061.86 
     101  0.037428192   -796.31191            0   -796.31131    13061.725 
     102  0.043596507     -796.312            0   -796.31129    13061.573 
     103  0.050192025   -796.31209            0   -796.31127    13061.404 
     104   0.05720229   -796.31218            0   -796.31125    13061.214 
     105  0.064614153   -796.31228            0   -796.31123    13061.004 
     106  0.072413757   -796.31238            0   -796.31121    13060.772 
     107  0.080586594   -796.31249            0   -796.31118    13060.516 
     108  0.089117535   -796.31261            0   -796.31116    13060.235 
     109  0.097990859   -796.31273            0   -796.31113    13059.926 
     110   0.10719033   -796.31286            0   -796.31111    13059.587 
     111   0.11669922   -796.31299            0   -796.31108    13059.217 
     112   0.12650038   -796.31312            0   -796.31106    13058.815 
     113   0.13657628   -796.31326            0   -796.31103    13058.377 
     114   0.14690926    -796.3134            0   -796.31101    13057.902 
     115   0.15748118   -796.31354            0   -796.31098    13057.389 
     116   0.16827373   -796.31369            0   -796.31095    13056.836 
     117   0.17926843   -796.31384            0   -796.31092     13056.24 
     118    0.1904471     -796.314            0    -796.3109      13055.6 
     119      0.20179   -796.31415            0   -796.31087    13054.914 
     120   0.21327904   -796.31431            0   -796.31084    13054.179 
     121    0.2248948   -796.31448            0   -796.31081    13053.394 
     122   0.23661968   -796.31464            0   -796.31079    13052.558 
     123   0.24843305    -796.3148            0   -796.31076    13051.667 
     124   0.26032012   -796.31497            0   -796.31073    13050.722 
     125   0.27225529   -796.31514            0    -796.3107    13049.717 
     126   0.28423317   -796.31531            0   -796.31068    13048.656 
     127   0.29618987   -796.31548            0   -796.31065    13047.519 
     128    0.3080486   -796.31565            0   -796.31063    13046.364 
     129   0.31826851   -796.31582            0   -796.31063    13044.968 
     130   0.31213263   -796.31598            0   -796.31089    13043.914 
     131   0.17993839   -796.31609            0   -796.31316    13039.972 
     132 0.0068156134   -796.31611            0     -796.316    13037.906 
     133 0.0092028173   -796.31613            0   -796.31598     13038.01 
     134  0.011309174   -796.31616            0   -796.31598    13037.884 
     135  0.013469479   -796.31619            0   -796.31597    13037.636 
     136  0.015881866   -796.31623            0   -796.31597    13037.345 
     137  0.018487353   -796.31626            0   -796.31596    13037.026 
     138  0.021276569    -796.3163            0   -796.31596    13036.679 
     139  0.024244656   -796.31635            0   -796.31595    13036.305 
     140  0.027386883   -796.31639            0   -796.31594    13035.902 
     141  0.030698349   -796.31644            0   -796.31594     13035.47 
     142  0.034173863   -796.31649            0   -796.31593    13035.009 
     143  0.037808087   -796.31654            0   -796.31592    13034.518 
     144  0.041595404   -796.31659            0   -796.31592    13033.998 
     145  0.045530028   -796.31665            0   -796.31591    13033.448 
     146  0.049605884   -796.31671            0    -796.3159    13032.866 
     147  0.053816704   -796.31677            0   -796.31589    13032.254 
     148  0.058156065   -796.31683            0   -796.31588    13031.609 
     149  0.062617359    -796.3169            0   -796.31588    13030.932 
     150  0.067193857   -796.31696            0   -796.31587    13030.222 
     151  0.071878633   -796.31703            0   -796.31586    13029.478 
     152  0.076664621    -796.3171            0   -796.31585    13028.699 
     153   0.08154465   -796.31717            0   -796.31584    13027.886 
     154  0.086511502   -796.31724            0   -796.31583    13027.038 
     155  0.091557848   -796.31732            0   -796.31582    13026.154 
     156  0.096676245   -796.31739            0   -796.31582    13025.233 
     157   0.10185884   -796.31747            0   -796.31581    13024.277 
     158   0.10709832   -796.31754            0    -796.3158    13023.283 
     159   0.11238726   -796.31762            0   -796.31579    13022.251 
     160   0.11771822    -796.3177            0   -796.31578    13021.181 
     161   0.12308287   -796.31778            0   -796.31577    13020.074 
     162   0.12847562   -796.31786            0   -796.31577    13018.919 
     163   0.13388549   -796.31794            0   -796.31576    13017.753 
     164   0.13933682   -796.31802            0   -796.31575    13016.454 
     165   0.14494399    -796.3181            0   -796.31574    13015.436 
     166    0.1530131   -796.31818            0   -796.31569    13013.286 
     167   0.18588406   -796.31824            0   -796.31521    13015.556 
     168   0.19039577   -796.31827            0   -796.31517    13009.356 
     169 0.0038364372   -796.31828            0   -796.31822    13007.533 
     170 0.0046074794    -796.3183            0   -796.31822    13008.239 
     171 0.0044400919   -796.31831            0   -796.31824    13008.824 
     172 0.0037571537   -796.31832            0   -796.31826    13009.149 
     173 0.0036012438   -796.31833            0   -796.31827    13009.213 
     174 0.0041238755   -796.31834            0   -796.31828    13009.103 
     175 0.0049595922   -796.31836            0   -796.31827    13008.902 
     176 0.0059218717   -796.31837            0   -796.31827    13008.654 
     177  0.006970105   -796.31839            0   -796.31827    13008.377 
     178 0.0080988405    -796.3184            0   -796.31827    13008.075 
     179 0.0093063762   -796.31842            0   -796.31827    13007.748 
     180  0.010591036   -796.31844            0   -796.31827    13007.396 
     181  0.011951023   -796.31846            0   -796.31827    13007.021 
     182  0.013384434   -796.31848            0   -796.31826     13006.62 
     183  0.014889257   -796.31851            0   -796.31826    13006.196 
     184  0.016463382   -796.31853            0   -796.31826    13005.746 
     185  0.018104599   -796.31856            0   -796.31826    13005.272 
     186  0.019810609   -796.31858            0   -796.31826    13004.773 
     187   0.02157902   -796.31861            0   -796.31826    13004.249 
     188   0.02340735   -796.31864            0   -796.31826      13003.7 
     189  0.025293034   -796.31867            0   -796.31825    13003.126 
     190  0.027233443    -796.3187            0   -796.31825    13002.527 
     191  0.029225862   -796.31873            0   -796.31825    13001.903 
     192  0.031267509   -796.31876            0   -796.31825    13001.253 
     193  0.033355542   -796.31879            0   -796.31825    13000.578 
     194  0.035487059   -796.31882            0   -796.31825    12999.878 
     195  0.037659106   -796.31886            0   -796.31824    12999.153 
     196  0.039868667   -796.31889            0   -796.31824    12998.401 
     197  0.042112702   -796.31893            0   -796.31824    12997.625 
     198  0.044388128   -796.31896            0   -796.31824    12996.822 
     199   0.04669182     -796.319            0   -796.31824    12995.994 
     200  0.049020621   -796.31904            0   -796.31824    12995.141 
     201  0.051371376   -796.31907            0   -796.31824    12994.261 
     202  0.053740811   -796.31911            0   -796.31823    12993.355 
     203  0.056125694   -796.31915            0   -796.31823    12992.423 
     204  0.058520209   -796.31919            0   -796.31823    12991.469 
     205  0.060902925   -796.31922            0   -796.31823    12990.478 
     206  0.063037055   -796.31926            0   -796.31824    12989.498 
     207  0.062251661    -796.3193            0   -796.31829    12988.346 
     208  0.036481416   -796.31933            0   -796.31874      12987.5 
     209 0.0011853988   -796.31933            0   -796.31932    12986.779 
     210 0.0022749573   -796.31934            0    -796.3193    12986.533 
     211 0.0029139719   -796.31935            0    -796.3193    12986.313 
     212 0.0034229103   -796.31936            0    -796.3193    12986.085 
     213 0.0039678995   -796.31937            0    -796.3193    12985.838 
     214 0.0045504059   -796.31938            0    -796.3193    12985.572 
     215 0.0051696567   -796.31939            0    -796.3193    12985.287 
     216  0.005824831    -796.3194            0    -796.3193    12984.983 
     217 0.0065150547   -796.31941            0    -796.3193     12984.66 
     218 0.0072394115   -796.31942            0    -796.3193    12984.318 
     219 0.0079969282   -796.31943            0    -796.3193    12983.957 
     220 0.0087865906   -796.31944            0    -796.3193    12983.577 
     221 0.0096073403   -796.31946            0    -796.3193    12983.179 
     222  0.010458078   -796.31947            0    -796.3193    12982.761 
     223  0.011337662   -796.31949            0    -796.3193    12982.325 
     224  0.012244912    -796.3195            0    -796.3193     12981.87 
     225   0.01317861   -796.31952            0    -796.3193    12981.396 
     226  0.014137507   -796.31953            0    -796.3193    12980.903 
     227  0.015120315   -796.31955            0    -796.3193    12980.392 
     228  0.016125719   -796.31957            0   -796.31931    12979.862 
     229  0.017152373   -796.31959            0   -796.31931    12979.313 
     230  0.018198904    -796.3196            0   -796.31931    12978.746 
     231  0.019263915   -796.31962            0   -796.31931     12978.16 
     232  0.020345986   -796.31964            0   -796.31931    12977.556 
     233  0.021443672   -796.31966            0   -796.31931    12976.933 
     234  0.022555471   -796.31968            0   -796.31931    12976.291 
     235  0.023679915    -796.3197            0   -796.31931    12975.631 
     236  0.024815549   -796.31972            0   -796.31931    12974.953 
     237  0.025960817   -796.31974            0   -796.31931    12974.257 
     238  0.027114164   -796.31976            0   -796.31932    12973.542 
     239  0.028272057   -796.31978            0   -796.31932    12972.813 
     240  0.029418296    -796.3198            0   -796.31932    12972.052 
     241  0.030359137   -796.31982            0   -796.31932    12971.323 
     242  0.028930199   -796.31984            0   -796.31937    12970.408 
     243  0.012020627   -796.31985            0   -796.31966    12969.991 
     244 0.00019320402   -796.31985            0   -796.31985    12969.725 
     245 0.00034440231   -796.31985            0   -796.31985    12969.597 
     246 0.00056450593   -796.31986            0   -796.31985    12969.459 
     247 0.00078528566   -796.31986            0   -796.31985    12969.322 
     248 0.00098578301   -796.31986            0   -796.31985    12969.185 
     249 0.0011943854   -796.31987            0   -796.31985    12969.038 
     250 0.0014208792   -796.31987            0   -796.31985     12968.88 
     251 0.0016660608   -796.31988            0   -796.31985    12968.707 
     252 0.0019296484   -796.31988            0   -796.31985     12968.52 
     253 0.0022113024   -796.31989            0   -796.31985    12968.318 
     254 0.0025106609   -796.31989            0   -796.31985    12968.103 
     255 0.0028273377    -796.3199            0   -796.31985    12967.873 
     256 0.0031609235    -796.3199            0   -796.31985     12967.63 
     257  0.003510986   -796.31991            0   -796.31985    12967.372 
     258 0.0038770704   -796.31992            0   -796.31985      12967.1 
     259 0.0042587007   -796.31992            0   -796.31985    12966.814 
     260 0.0046553806   -796.31993            0   -796.31986    12966.515 
     261 0.0050665932   -796.31994            0   -796.31986    12966.201 
     262 0.0054918026   -796.31995            0   -796.31986    12965.874 
     263 0.0059304542   -796.31996            0   -796.31986    12965.533 
     264 0.0063819757   -796.31996            0   -796.31986    12965.178 
     265 0.0068457781   -796.31997            0   -796.31986    12964.809 
     266 0.0073212564   -796.31998            0   -796.31986    12964.427 
     267 0.0078077904   -796.31999            0   -796.31986    12964.032 
     268 0.0083047459      -796.32            0   -796.31987    12963.623 
     269 0.0088114755   -796.32001            0   -796.31987      12963.2 
     270 0.0093273194   -796.32002            0   -796.31987    12962.764 
     271 0.0098516067   -796.32003            0   -796.31987    12962.315 
     272  0.010383656   -796.32004            0   -796.31987    12961.853 
     273  0.010922759   -796.32005            0   -796.31987    12961.378 
     274  0.011468215   -796.32006            0   -796.31988    12960.889 
     275  0.012019337   -796.32007            0   -796.31988    12960.388 
     276  0.012575413   -796.32009            0   -796.31988    12959.874 
     277  0.013135723    -796.3201            0   -796.31988    12959.347 
     278  0.013699492   -796.32011            0   -796.31989    12958.808 
     279  0.014265455   -796.32012            0   -796.31989    12958.255 
     280  0.014826944   -796.32013            0   -796.31989    12957.692 
     281  0.015310412   -796.32014            0    -796.3199    12957.114 
     282  0.014793096   -796.32016            0   -796.31992     12956.54 
     283 0.0067249731   -796.32016            0   -796.32005    12956.031 
     284 8.0972069e-05   -796.32017            0   -796.32016    12955.912 
     285 0.00014739942   -796.32017            0   -796.32016    12955.866 
     286 0.00025112816   -796.32017            0   -796.32016    12955.802 
     287 0.00036122286   -796.32017            0   -796.32016    12955.722 
     288 0.00045794081   -796.32017            0   -796.32016    12955.629 
     289 0.00055591213   -796.32017            0   -796.32016    12955.525 
     290 0.00066191133   -796.32018            0   -796.32016    12955.411 
     291 0.00077668257   -796.32018            0   -796.32017    12955.286 
     292 0.00090012441   -796.32018            0   -796.32017    12955.151 
     293  0.001032083   -796.32018            0   -796.32017    12955.006 
     294 0.0011723927   -796.32019            0   -796.32017    12954.851 
     295 0.0013208769   -796.32019            0   -796.32017    12954.686 
     296 0.0014773484   -796.32019            0   -796.32017     12954.51 
     297 0.0016416092    -796.3202            0   -796.32017    12954.325 
     298 0.0018134513    -796.3202            0   -796.32017    12954.129 
     299 0.0019926564   -796.32021            0   -796.32017    12953.924 
     300 0.0021789971   -796.32021            0   -796.32017    12953.708 
     301 0.0023722363   -796.32021            0   -796.32018    12953.483 
     302  0.002572128   -796.32022            0   -796.32018    12953.247 
     303 0.0027784179   -796.32022            0   -796.32018    12953.002 
     304 0.0029908431   -796.32023            0   -796.32018    12952.747 
     305  0.003209133   -796.32023            0   -796.32018    12952.482 
     306 0.0034330097   -796.32024            0   -796.32018    12952.207 
     307 0.0036621853   -796.32025            0   -796.32019    12951.923 
     308 0.0038963655   -796.32025            0   -796.32019    12951.629 
     309 0.0041352545   -796.32026            0   -796.32019    12951.325 
     310 0.0043785481   -796.32026            0   -796.32019    12951.012 
     311  0.004625937   -796.32027            0   -796.32019    12950.689 
     312 0.0048771073   -796.32028            0    -796.3202    12950.357 
     313 0.0051317425   -796.32028            0    -796.3202    12950.015 
     314 0.0053895174   -796.32029            0    -796.3202    12949.665 
     315 0.0056501121   -796.32029            0    -796.3202    12949.305 
     316 0.0059131843    -796.3203            0   -796.32021    12948.936 
     317 0.0061784401   -796.32031            0   -796.32021    12948.558 
     318 0.0064454492   -796.32032            0   -796.32021    12948.172 
     319 0.0067141397   -796.32032            0   -796.32021    12947.775 
     320 0.0069832254   -796.32033            0   -796.32022    12947.375 
     321 0.0072532757   -796.32034            0   -796.32022    12946.947 
     322 0.0074933091   -796.32035            0   -796.32022    12946.578 
     323 0.0074194488   -796.32035            0   -796.32023     12945.97 
     324 0.0041108081   -796.32036            0   -796.32029    12946.114 
     325 5.0075292e-05   -796.32036            0   -796.32036    12945.962 
     326 7.5837693e-05   -796.32036            0   -796.32036    12945.846 
     327 0.00010971422   -796.32036            0   -796.32036    12945.725 
     328 0.00014802784   -796.32036            0   -796.32036    12945.619 
     329 0.00018654702   -796.32036            0   -796.32036    12945.533 
     330 0.00022829006   -796.32036            0   -796.32036    12945.456 
     331 0.00027440072   -796.32037            0   -796.32036    12945.377 
     332 0.00032470703   -796.32037            0   -796.32036    12945.293 
     333 0.00037907024   -796.32037            0   -796.32036    12945.202 
     334 0.00043740562   -796.32037            0   -796.32036    12945.104 
     335 0.00049963791   -796.32037            0   -796.32036    12944.998 
     336 0.00056569036   -796.32037            0   -796.32037    12944.886 
     337 0.00063548177   -796.32038            0   -796.32037    12944.766 
     338 0.00070892613   -796.32038            0   -796.32037    12944.639 
     339 0.00078593278   -796.32038            0   -796.32037    12944.504 
     340 0.00086640649   -796.32038            0   -796.32037    12944.363 
     341 0.00095024763   -796.32039            0   -796.32037    12944.215 
     342 0.0010373523   -796.32039            0   -796.32037    12944.059 
     343 0.0011276127   -796.32039            0   -796.32037    12943.897 
     344 0.0012209168    -796.3204            0   -796.32038    12943.727 
     345 0.0013171492    -796.3204            0   -796.32038    12943.551 
     346 0.0014161899    -796.3204            0   -796.32038    12943.368 
     347 0.0015179162   -796.32041            0   -796.32038    12943.178 
     348 0.0016222018   -796.32041            0   -796.32038    12942.981 
     349 0.0017289175   -796.32041            0   -796.32038    12942.777 
     350 0.0018379313   -796.32042            0   -796.32039    12942.566 
     351 0.0019491081   -796.32042            0   -796.32039    12942.349 
     352 0.0020623107   -796.32042            0   -796.32039    12942.125 
     353  0.002177394   -796.32043            0   -796.32039    12941.894 
     354 0.0022942243   -796.32043            0    -796.3204    12941.657 
     355 0.0024126482   -796.32044            0    -796.3204    12941.413 
     356 0.0025325403   -796.32044            0    -796.3204    12941.163 
     357 0.0026537134   -796.32045            0    -796.3204    12940.906 
     358 0.0027761066   -796.32045            0   -796.32041    12940.643 
     359 0.0028993704   -796.32046            0   -796.32041    12940.373 
     360 0.0030238264   -796.32046            0   -796.32041    12940.097 
     361 0.0031479749   -796.32047            0   -796.32041    12939.815 
     362 0.0032735108   -796.32047            0   -796.32042    12939.526 
     363  0.003372885   -796.32048            0   -796.32042    12939.237 
     364 0.0032330609   -796.32048            0   -796.32043    12938.934 
     365 0.0013029133   -796.32048            0   -796.32046    12938.789 
     366 1.3401244e-05   -796.32048            0   -796.32048    12938.757 
     367 2.2138877e-05   -796.32048            0   -796.32048    12938.737 
     368 3.3524153e-05   -796.32048            0   -796.32048    12938.709 
     369 4.7327534e-05   -796.32049            0   -796.32048    12938.676 
     370 6.2674051e-05   -796.32049            0   -796.32049    12938.637 
     371 7.959315e-05   -796.32049            0   -796.32049    12938.595 
     372 9.8587451e-05   -796.32049            0   -796.32049    12938.547 
     373 0.00011969952   -796.32049            0   -796.32049    12938.495 
     374 0.00014283983   -796.32049            0   -796.32049    12938.437 
     375 0.00016795353   -796.32049            0   -796.32049    12938.375 
     376 0.00019500298   -796.32049            0   -796.32049    12938.307 
     377 0.00022395294   -796.32049            0   -796.32049    12938.233 
     378 0.00025476787   -796.32049            0   -796.32049    12938.155 
     379 0.00028741081    -796.3205            0   -796.32049    12938.071 
     380 0.0003218427    -796.3205            0   -796.32049    12937.982 
     381 0.00035802226    -796.3205            0   -796.32049    12937.888 
     382 0.00039590605    -796.3205            0    -796.3205    12937.789 
     383 0.00043544854    -796.3205            0    -796.3205    12937.685 
     384 0.00047660215   -796.32051            0    -796.3205    12937.576 
     385 0.00051931732   -796.32051            0    -796.3205    12937.461 
     386 0.00056354263   -796.32051            0    -796.3205    12937.342 
     387 0.00060922479   -796.32051            0    -796.3205    12937.217 
     388 0.00065630881   -796.32051            0    -796.3205    12937.088 
     389 0.00070473804   -796.32052            0   -796.32051    12936.953 
     390 0.00075445423   -796.32052            0   -796.32051    12936.814 
     391 0.00080539762   -796.32052            0   -796.32051     12936.67 
     392 0.00085750705   -796.32052            0   -796.32051     12936.52 
     393 0.00091072006   -796.32053            0   -796.32051    12936.366 
     394 0.00096497306   -796.32053            0   -796.32052    12936.207 
     395 0.0010202013   -796.32053            0   -796.32052    12936.043 
     396 0.0010763388   -796.32054            0   -796.32052    12935.875 
     397 0.0011333188   -796.32054            0   -796.32052    12935.701 
     398 0.0011910739   -796.32054            0   -796.32052    12935.523 
     399 0.0012495358   -796.32055            0   -796.32053     12935.34 
     400 0.0013086354   -796.32055            0   -796.32053    12935.152 
     401 0.0013683035   -796.32055            0   -796.32053     12934.96 
     402 0.0014284685   -796.32056            0   -796.32053    12934.763 
     403 0.0014890453   -796.32056            0   -796.32054    12934.562 
     404 0.0015497862   -796.32057            0   -796.32054    12934.356 
     405 0.0016084672   -796.32057            0   -796.32054    12934.145 
     406 0.0016363989   -796.32057            0   -796.32055    12933.935 
     407 0.0012986339   -796.32058            0   -796.32056     12933.73 
     408 0.00012519575   -796.32058            0   -796.32058    12933.669 
     409 5.9174125e-05   -796.32058            0   -796.32058    12933.627 
     410 7.1793039e-05   -796.32058            0   -796.32058    12933.585 
     411 8.4407448e-05   -796.32058            0   -796.32058    12933.538 
     412 9.7985799e-05   -796.32058            0   -796.32058    12933.488 
     413 0.00011251812   -796.32058            0   -796.32058    12933.434 
     414 0.00012798774   -796.32058            0   -796.32058    12933.376 
     415 0.00014437678   -796.32059            0   -796.32058    12933.315 
     416 0.00016166628   -796.32059            0   -796.32058    12933.249 
     417 0.00017983617   -796.32059            0   -796.32059     12933.18 
     418 0.00019886535   -796.32059            0   -796.32059    12933.107 
     419 0.0002187317   -796.32059            0   -796.32059     12933.03 
     420 0.00023941211   -796.32059            0   -796.32059    12932.949 
     421 0.00026088251   -796.32059            0   -796.32059    12932.865 
     422 0.00028311799    -796.3206            0   -796.32059    12932.777 
     423 0.00030609261    -796.3206            0   -796.32059    12932.685 
     424 0.00032977967    -796.3206            0   -796.32059    12932.589 
     425 0.00035415156    -796.3206            0    -796.3206     12932.49 
     426 0.00037918002    -796.3206            0    -796.3206    12932.387 
     427 0.00040483608   -796.32061            0    -796.3206     12932.28 
     428 0.00043109004   -796.32061            0    -796.3206     12932.17 
     429 0.00045791159   -796.32061            0    -796.3206    12932.056 
     430 0.0004852698   -796.32061            0   -796.32061    12931.939 
     431 0.00051313322   -796.32062            0   -796.32061    12931.818 
     432 0.00054146991   -796.32062            0   -796.32061    12931.693 
     433 0.00057024744   -796.32062            0   -796.32061    12931.565 
     434 0.00059943304   -796.32062            0   -796.32061    12931.433 
     435 0.00062899344   -796.32063            0   -796.32062    12931.298 
     436 0.00065889484   -796.32063            0   -796.32062    12931.159 
     437 0.00068909701   -796.32063            0   -796.32062    12931.017 
     438 0.00071951404   -796.32064            0   -796.32062    12930.871 
     439 0.00074952307   -796.32064            0   -796.32063    12930.722 
     440 0.00077244801   -796.32064            0   -796.32063    12930.571 
     441 0.00071152992   -796.32065            0   -796.32063    12930.421 
     442 0.00022256466   -796.32065            0   -796.32064     12930.34 
     443 4.2131494e-06   -796.32065            0   -796.32065    12930.327 
     444 7.3830592e-06   -796.32065            0   -796.32065    12930.313 
     445 1.2026849e-05   -796.32065            0   -796.32065    12930.296 
     446 1.7198848e-05   -796.32065            0   -796.32065    12930.275 
     447 2.2247464e-05   -796.32065            0   -796.32065     12930.25 
     448 2.7527578e-05   -796.32065            0   -796.32065    12930.223 
     449 3.3288843e-05   -796.32065            0   -796.32065    12930.194 
     450 3.957382e-05   -796.32065            0   -796.32065    12930.161 
     451 4.6379472e-05   -796.32065            0   -796.32065    12930.125 
     452 5.369843e-05   -796.32065            0   -796.32065    12930.086 
     453 6.1522593e-05   -796.32065            0   -796.32065    12930.045 
     454 6.9843269e-05   -796.32065            0   -796.32065        12930 
     455 7.8651188e-05   -796.32066            0   -796.32065    12929.953 
     456 8.7936521e-05   -796.32066            0   -796.32065    12929.902 
     457 9.7688886e-05   -796.32066            0   -796.32066    12929.849 
     458 0.00010789737   -796.32066            0   -796.32066    12929.793 
     459 0.00011855054   -796.32066            0   -796.32066    12929.734 
     460 0.00012963647   -796.32066            0   -796.32066    12929.672 
     461 0.00014114274   -796.32066            0   -796.32066    12929.608 
     462 0.00015305645   -796.32066            0   -796.32066     12929.54 
     463 0.00016536428   -796.32067            0   -796.32066     12929.47 
     464 0.00017805245   -796.32067            0   -796.32066    12929.397 
     465 0.0001911068   -796.32067            0   -796.32067    12929.321 
     466 0.00020451276   -796.32067            0   -796.32067    12929.242 
     467 0.00021825541   -796.32067            0   -796.32067    12929.161 
     468 0.00023231948   -796.32067            0   -796.32067    12929.076 
     469 0.00024668937   -796.32068            0   -796.32067    12928.989 
     470 0.00026134919   -796.32068            0   -796.32067    12928.899 
     471 0.00027628278   -796.32068            0   -796.32068    12928.807 
     472 0.00029147373   -796.32068            0   -796.32068    12928.712 
     473 0.00030690539   -796.32069            0   -796.32068    12928.614 
     474 0.00032256093   -796.32069            0   -796.32068    12928.513 
     475 0.00033842333   -796.32069            0   -796.32068    12928.409 
     476 0.0003544753   -796.32069            0   -796.32069    12928.303 
     477 0.00037069831    -796.3207            0   -796.32069    12928.195 
     478 0.00038706236    -796.3207            0   -796.32069    12928.083 
     479 0.00040340995    -796.3207            0   -796.32069    12927.969 
     480 0.00041802333    -796.3207            0    -796.3207    12927.853 
     481 0.00040930857   -796.32071            0    -796.3207    12927.738 
     482 0.00020926659   -796.32071            0    -796.3207    12927.651 
     483 3.6080177e-06   -796.32071            0   -796.32071    12927.639 
     484 6.8282525e-06   -796.32071            0   -796.32071    12927.626 
     485 1.1056327e-05   -796.32071            0   -796.32071    12927.609 
     486 1.4410334e-05   -796.32071            0   -796.32071    12927.589 
     487 1.7515953e-05   -796.32071            0   -796.32071    12927.566 
     488 2.0859569e-05   -796.32071            0   -796.32071    12927.541 
     489  2.44826e-05   -796.32071            0   -796.32071    12927.514 
     490 2.8382243e-05   -796.32071            0   -796.32071    12927.485 
     491 3.2554361e-05   -796.32071            0   -796.32071    12927.453 
     492 3.6994508e-05   -796.32071            0   -796.32071    12927.419 
     493 4.1697942e-05   -796.32071            0   -796.32071    12927.383 
     494 4.6659627e-05   -796.32072            0   -796.32071    12927.345 
     495 5.1874242e-05   -796.32072            0   -796.32072    12927.305 
     496 5.7336191e-05   -796.32072            0   -796.32072    12927.262 
     497 6.3039609e-05   -796.32072            0   -796.32072    12927.217 
     498 6.8978367e-05   -796.32072            0   -796.32072     12927.17 
     499 7.5146086e-05   -796.32072            0   -796.32072    12927.121 
     500 8.1536144e-05   -796.32072            0   -796.32072     12927.07 
     501 8.8141683e-05   -796.32072            0   -796.32072    12927.016 
     502 9.4955623e-05   -796.32072            0   -796.32072     12926.96 
     503 0.00010197067   -796.32073            0   -796.32072    12926.902 
     504 0.00010917932   -796.32073            0   -796.32073    12926.842 
     505 0.00011657388   -796.32073            0   -796.32073     12926.78 
     506 0.00012414649   -796.32073            0   -796.32073    12926.716 
     507 0.00013188908   -796.32073            0   -796.32073    12926.649 
     508 0.00013979348   -796.32073            0   -796.32073    12926.581 
     509 0.00014785131   -796.32074            0   -796.32073     12926.51 
     510 0.00015605411   -796.32074            0   -796.32074    12926.437 
     511 0.00016439326   -796.32074            0   -796.32074    12926.362 
     512 0.00017286004   -796.32074            0   -796.32074    12926.285 
     513 0.00018144565   -796.32074            0   -796.32074    12926.206 
     514 0.00019014119   -796.32075            0   -796.32074    12926.125 
     515 0.00019893746   -796.32075            0   -796.32075    12926.042 
     516 0.00020782403   -796.32075            0   -796.32075    12925.957 
     517 0.0002167704   -796.32075            0   -796.32075    12925.869 
     518 0.00022550679   -796.32076            0   -796.32075     12925.78 
     519 0.00023029414   -796.32076            0   -796.32075    12925.689 
     520 0.00018483091   -796.32076            0   -796.32076    12925.609 
     521 1.7092764e-05   -796.32076            0   -796.32076    12925.581 
     522 7.635513e-06   -796.32076            0   -796.32076    12925.566 
     523 9.4965095e-06   -796.32076            0   -796.32076    12925.549 
     524 1.1322294e-05   -796.32076            0   -796.32076     12925.53 
     525 1.3299901e-05   -796.32076            0   -796.32076    12925.509 
     526 1.5429697e-05   -796.32076            0   -796.32076    12925.486 
     527 1.7709493e-05   -796.32076            0   -796.32076    12925.462 
     528 2.0136961e-05   -796.32076            0   -796.32076    12925.436 
     529 2.2709617e-05   -796.32077            0   -796.32077    12925.408 
     530 2.5424821e-05   -796.32077            0   -796.32077    12925.379 
     531 2.8279783e-05   -796.32077            0   -796.32077    12925.348 
     532 3.1271565e-05   -796.32077            0   -796.32077    12925.315 
     533 3.4397086e-05   -796.32077            0   -796.32077     12925.28 
     534 3.7653129e-05   -796.32077            0   -796.32077    12925.244 
     535 4.1036339e-05   -796.32077            0   -796.32077    12925.206 
     536 4.4543232e-05   -796.32077            0   -796.32077    12925.166 
     537  4.81702e-05   -796.32077            0   -796.32077    12925.125 
     538 5.1913513e-05   -796.32077            0   -796.32077    12925.082 
     539 5.5769327e-05   -796.32078            0   -796.32077    12925.037 
     540 5.9733685e-05   -796.32078            0   -796.32078     12924.99 
     541 6.380253e-05   -796.32078            0   -796.32078    12924.942 
     542 6.7971701e-05   -796.32078            0   -796.32078    12924.893 
     543 7.2236947e-05   -796.32078            0   -796.32078    12924.841 
     544 7.6593927e-05   -796.32078            0   -796.32078    12924.788 
     545 8.1038219e-05   -796.32078            0   -796.32078    12924.734 
     546 8.5565326e-05   -796.32079            0   -796.32078    12924.677 
     547 9.0170671e-05   -796.32079            0   -796.32079    12924.619 
     548 9.4849607e-05   -796.32079            0   -796.32079     12924.56 
     549 9.9597136e-05   -796.32079            0   -796.32079    12924.498 
     550 0.00010440615   -796.32079            0   -796.32079    12924.436 
     551 0.00010924538   -796.32079            0   -796.32079    12924.371 
     552 0.00011381598    -796.3208            0   -796.32079    12924.306 
     553 0.00011453226    -796.3208            0    -796.3208    12924.238 
     554 7.8086734e-05    -796.3208            0    -796.3208    12924.187 
     555 4.3807829e-06    -796.3208            0    -796.3208    12924.171 
     556 7.1337185e-06    -796.3208            0    -796.3208    12924.155 
     557 8.2957255e-06    -796.3208            0    -796.3208    12924.138 
     558 9.6018216e-06    -796.3208            0    -796.3208    12924.119 
     559 1.0999809e-05    -796.3208            0    -796.3208    12924.099 
     560 1.2487223e-05    -796.3208            0    -796.3208    12924.078 
     561 1.406255e-05    -796.3208            0    -796.3208    12924.055 
     562 1.572421e-05    -796.3208            0    -796.3208    12924.031 
     563 1.7470556e-05   -796.32081            0   -796.32081    12924.006 
     564 1.9299846e-05   -796.32081            0   -796.32081    12923.979 
     565 2.1210259e-05   -796.32081            0   -796.32081    12923.951 
     566 2.3199889e-05   -796.32081            0   -796.32081    12923.921 
     567 2.5266756e-05   -796.32081            0   -796.32081     12923.89 
     568 2.7408793e-05   -796.32081            0   -796.32081    12923.858 
     569 2.9623872e-05   -796.32081            0   -796.32081    12923.824 
     570 3.1909776e-05   -796.32081            0   -796.32081    12923.789 
     571 3.4264238e-05   -796.32081            0   -796.32081    12923.753 
     572 3.6684878e-05   -796.32081            0   -796.32081    12923.715 
     573 3.9169267e-05   -796.32082            0   -796.32081    12923.676 
     574 4.1714567e-05   -796.32082            0   -796.32082    12923.635 
     575 4.4316969e-05   -796.32082            0   -796.32082    12923.593 
     576 4.6965332e-05   -796.32082            0   -796.32082     12923.55 
     577 4.960737e-05   -796.32082            0   -796.32082    12923.506 
     578 5.1892454e-05   -796.32082            0   -796.32082     12923.46 
     579 5.1367215e-05   -796.32082            0   -796.32082    12923.416 
     580 3.5293827e-05   -796.32082            0   -796.32082    12923.375 
     581 6.0792418e-06   -796.32082            0   -796.32082    12923.362 
     582 4.7970388e-06   -796.32083            0   -796.32083    12923.348 
     583 5.6047853e-06   -796.32083            0   -796.32083    12923.334 
     584 6.5091141e-06   -796.32083            0   -796.32083    12923.318 
     585 7.4785849e-06   -796.32083            0   -796.32083    12923.302 
     586 8.5116307e-06   -796.32083            0   -796.32083    12923.284 
     587 9.6072323e-06   -796.32083            0   -796.32083    12923.264 
     588 1.0764314e-05   -796.32083            0   -796.32083    12923.244 
     589 1.1981752e-05   -796.32083            0   -796.32083    12923.222 
     590 1.3258356e-05   -796.32083            0   -796.32083    12923.199 
     591 1.459288e-05   -796.32083            0   -796.32083    12923.175 
     592 1.5984018e-05   -796.32083            0   -796.32083     12923.15 
     593 1.7430412e-05   -796.32083            0   -796.32083    12923.124 
     594 1.8930641e-05   -796.32083            0   -796.32083    12923.096 
     595 2.0483242e-05   -796.32083            0   -796.32083    12923.068 
     596 2.2086687e-05   -796.32084            0   -796.32083    12923.038 
     597 2.3739414e-05   -796.32084            0   -796.32084    12923.007 
     598 2.5439774e-05   -796.32084            0   -796.32084    12922.974 
     599 2.7186084e-05   -796.32084            0   -796.32084    12922.941 
     600 2.8976316e-05   -796.32084            0   -796.32084    12922.906 
     601 3.0807559e-05   -796.32084            0   -796.32084    12922.871 
     602 3.267017e-05   -796.32084            0   -796.32084    12922.834 
     603 3.4515143e-05   -796.32084            0   -796.32084    12922.796 
     604 3.6002825e-05   -796.32084            0   -796.32084    12922.757 
     605 3.4748388e-05   -796.32085            0   -796.32084    12922.719 
     606 2.0298497e-05   -796.32085            0   -796.32085    12922.688 
     607 2.6869336e-06   -796.32085            0   -796.32085    12922.679 
     608 3.3555327e-06   -796.32085            0   -796.32085    12922.668 
     609 3.952365e-06   -796.32085            0   -796.32085    12922.655 
     610 4.5968096e-06   -796.32085            0   -796.32085    12922.642 
     611 5.2876706e-06   -796.32085            0   -796.32085    12922.627 
     612 6.0242864e-06   -796.32085            0   -796.32085    12922.612 
     613 6.8059514e-06   -796.32085            0   -796.32085    12922.595 
     614 7.6319185e-06   -796.32085            0   -796.32085    12922.578 
     615 8.5013949e-06   -796.32085            0   -796.32085    12922.559 
     616 9.4135453e-06   -796.32085            0   -796.32085    12922.539 
     617 1.0367491e-05   -796.32085            0   -796.32085    12922.519 
     618 1.1362314e-05   -796.32085            0   -796.32085    12922.497 
     619 1.2397052e-05   -796.32085            0   -796.32085    12922.474 
     620 1.3470708e-05   -796.32085            0   -796.32085     12922.45 
     621 1.4582243e-05   -796.32085            0   -796.32085    12922.426 
     622 1.5730583e-05   -796.32086            0   -796.32086      12922.4 
     623 1.6914616e-05   -796.32086            0   -796.32086    12922.373 
     624  1.81332e-05   -796.32086            0   -796.32086    12922.345 
     625 1.9385146e-05   -796.32086            0   -796.32086    12922.316 
     626 2.0669243e-05   -796.32086            0   -796.32086    12922.286 
     627 2.1984145e-05   -796.32086            0   -796.32086    12922.255 
     628 2.3328185e-05   -796.32086            0   -796.32086    12922.224 
     629 2.4696858e-05   -796.32086            0   -796.32086    12922.191 
     630 2.6066834e-05   -796.32086            0   -796.32086    12922.157 
     631 2.7254327e-05   -796.32087            0   -796.32086    12922.122 
     632 2.6744075e-05   -796.32087            0   -796.32087    12922.088 
     633 1.615507e-05   -796.32087            0   -796.32087     12922.06 
     634 1.5725664e-06   -796.32087            0   -796.32087    12922.053 
     635 2.2259555e-06   -796.32087            0   -796.32087    12922.044 
     636 2.6312886e-06   -796.32087            0   -796.32087    12922.033 
     637 3.0742041e-06   -796.32087            0   -796.32087    12922.022 
     638 3.5501576e-06   -796.32087            0   -796.32087     12922.01 
     639 4.0586433e-06   -796.32087            0   -796.32087    12921.997 
     640 4.5991749e-06   -796.32087            0   -796.32087    12921.983 
     641 5.1712421e-06   -796.32087            0   -796.32087    12921.968 
     642 5.7743017e-06   -796.32087            0   -796.32087    12921.952 
     643 6.407781e-06   -796.32087            0   -796.32087    12921.936 
     644 7.071076e-06   -796.32087            0   -796.32087    12921.918 
     645 7.7635543e-06   -796.32087            0   -796.32087      12921.9 
     646 8.4845535e-06   -796.32087            0   -796.32087    12921.881 
     647 9.2333841e-06   -796.32087            0   -796.32087     12921.86 
     648 1.0009327e-05   -796.32087            0   -796.32087    12921.839 
     649 1.081164e-05   -796.32088            0   -796.32088    12921.818 
     650 1.163955e-05   -796.32088            0   -796.32088    12921.795 
     651 1.249226e-05   -796.32088            0   -796.32088    12921.771 
     652 1.3368929e-05   -796.32088            0   -796.32088    12921.747 
     653 1.4268656e-05   -796.32088            0   -796.32088    12921.721 
     654 1.5190145e-05   -796.32088            0   -796.32088    12921.695 
     655 1.6130213e-05   -796.32088            0   -796.32088    12921.668 
     656 1.7071733e-05   -796.32088            0   -796.32088     12921.64 
     657 1.789618e-05   -796.32088            0   -796.32088    12921.611 
     658 1.7692151e-05   -796.32088            0   -796.32088    12921.583 
     659 1.1566912e-05   -796.32088            0   -796.32088     12921.56 
     660 1.5644233e-06   -796.32088            0   -796.32088    12921.551 
     661 1.6503047e-06   -796.32089            0   -796.32089    12921.543 
     662 1.9497549e-06   -796.32089            0   -796.32089    12921.534 
     663 2.2753025e-06   -796.32089            0   -796.32089    12921.524 
     664 2.6249401e-06   -796.32089            0   -796.32089    12921.514 
     665 2.9982994e-06   -796.32089            0   -796.32089    12921.502 
     666 3.3950251e-06   -796.32089            0   -796.32089     12921.49 
     667 3.8147442e-06   -796.32089            0   -796.32089    12921.477 
     668 4.2570598e-06   -796.32089            0   -796.32089    12921.463 
     669 4.7215534e-06   -796.32089            0   -796.32089    12921.449 
     670 5.2077839e-06   -796.32089            0   -796.32089    12921.433 
     671 5.7152892e-06   -796.32089            0   -796.32089    12921.417 
     672 6.243585e-06   -796.32089            0   -796.32089      12921.4 
     673 6.7921675e-06   -796.32089            0   -796.32089    12921.383 
     674 7.360511e-06   -796.32089            0   -796.32089    12921.364 
     675 7.9480715e-06   -796.32089            0   -796.32089    12921.345 
     676 8.5542804e-06   -796.32089            0   -796.32089    12921.325 
     677 9.1785465e-06   -796.32089            0   -796.32089    12921.305 
     678 9.8202039e-06   -796.32089            0   -796.32089    12921.283 
     679 1.047835e-05    -796.3209            0   -796.32089    12921.261 
     680 1.1150598e-05    -796.3209            0    -796.3209    12921.238 
     681 1.182542e-05    -796.3209            0    -796.3209    12921.214 
     682 1.2424855e-05    -796.3209            0    -796.3209     12921.19 
     683 1.2380859e-05    -796.3209            0    -796.3209    12921.166 
     684 8.6021356e-06    -796.3209            0    -796.3209    12921.145 
     685 1.4330194e-06    -796.3209            0    -796.3209    12921.138 
     686 1.1435706e-06    -796.3209            0    -796.3209    12921.131 
     687 1.3522914e-06    -796.3209            0    -796.3209    12921.123 
     688 1.5864417e-06    -796.3209            0    -796.3209    12921.115 
     689 1.8387013e-06    -796.3209            0    -796.3209    12921.105 
     690 2.1086941e-06    -796.3209            0    -796.3209    12921.096 
     691 2.3961595e-06    -796.3209            0    -796.3209    12921.085 
     692 2.7008258e-06    -796.3209            0    -796.3209    12921.074 
     693 3.0224058e-06    -796.3209            0    -796.3209    12921.062 
     694 3.360595e-06    -796.3209            0    -796.3209     12921.05 
     695 3.7150725e-06    -796.3209            0    -796.3209    12921.037 
     696 4.085501e-06    -796.3209            0    -796.3209    12921.023 
     697 4.4715273e-06    -796.3209            0    -796.3209    12921.008 
     698 4.8727821e-06    -796.3209            0    -796.3209    12920.993 
     699 5.2888811e-06   -796.32091            0   -796.32091    12920.977 
     700 5.7194232e-06   -796.32091            0   -796.32091    12920.961 
     701 6.1639911e-06   -796.32091            0   -796.32091    12920.944 
     702 6.6221377e-06   -796.32091            0   -796.32091    12920.926 
     703 7.0933438e-06   -796.32091            0   -796.32091    12920.907 
     704 7.5767405e-06   -796.32091            0   -796.32091    12920.888 
     705 8.0695493e-06   -796.32091            0   -796.32091    12920.868 
     706 8.5565117e-06   -796.32091            0   -796.32091    12920.848 
     707 8.9347271e-06   -796.32091            0   -796.32091    12920.827 
     708 8.4912208e-06   -796.32091            0   -796.32091    12920.807 
     709 4.5104936e-06   -796.32091            0   -796.32091    12920.792 
     710 5.8446841e-07   -796.32091            0   -796.32091    12920.787 
     711 8.1038885e-07   -796.32091            0   -796.32091    12920.781 
     712 9.6800434e-07   -796.32091            0   -796.32091    12920.774 
     713 1.1403079e-06   -796.32091            0   -796.32091    12920.767 
     714 1.3261911e-06   -796.32091            0   -796.32091    12920.759 
     715 1.5254669e-06   -796.32091            0   -796.32091    12920.751 
     716 1.7379477e-06   -796.32091            0   -796.32091    12920.742 
     717 1.9634332e-06   -796.32091            0   -796.32091    12920.732 
     718 2.2017102e-06   -796.32091            0   -796.32091    12920.722 
     719 2.4525527e-06   -796.32092            0   -796.32092    12920.711 
     720 2.7157216e-06   -796.32092            0   -796.32092      12920.7 
     721 2.9909659e-06   -796.32092            0   -796.32092    12920.688 
     722 3.2780219e-06   -796.32092            0   -796.32092    12920.675 
     723 3.5766142e-06   -796.32092            0   -796.32092    12920.662 
     724 3.8864553e-06   -796.32092            0   -796.32092    12920.648 
     725 4.2072465e-06   -796.32092            0   -796.32092    12920.634 
     726 4.5386774e-06   -796.32092            0   -796.32092    12920.619 
     727 4.8804258e-06   -796.32092            0   -796.32092    12920.603 
     728 5.2321545e-06   -796.32092            0   -796.32092    12920.587 
     729 5.5934935e-06   -796.32092            0   -796.32092    12920.571 
     730 5.9639295e-06   -796.32092            0   -796.32092    12920.553 
     731 6.3420702e-06   -796.32092            0   -796.32092    12920.535 
     732 6.7202169e-06   -796.32092            0   -796.32092    12920.517 
     733 7.0407546e-06   -796.32092            0   -796.32092    12920.498 
     734  6.84516e-06   -796.32092            0   -796.32092     12920.48 
     735 3.8857834e-06   -796.32092            0   -796.32092    12920.466 
     736 3.8589467e-07   -796.32092            0   -796.32092    12920.461 
     737 5.7764758e-07   -796.32092            0   -796.32092    12920.456 
     738 6.9161958e-07   -796.32093            0   -796.32093    12920.451 
     739 8.1721951e-07   -796.32093            0   -796.32093    12920.445 
     740 9.5292342e-07   -796.32093            0   -796.32093    12920.438 
     741 1.098587e-06   -796.32093            0   -796.32093    12920.431 
     742 1.254072e-06   -796.32093            0   -796.32093    12920.423 
     743 1.419231e-06   -796.32093            0   -796.32093    12920.415 
     744 1.5939068e-06   -796.32093            0   -796.32093    12920.406 
     745 1.7779326e-06   -796.32093            0   -796.32093    12920.396 
     746 1.9711321e-06   -796.32093            0   -796.32093    12920.387 
     747 2.1733194e-06   -796.32093            0   -796.32093    12920.376 
     748 2.3842996e-06   -796.32093            0   -796.32093    12920.365 
     749 2.6038687e-06   -796.32093            0   -796.32093    12920.354 
     750 2.8318138e-06   -796.32093            0   -796.32093    12920.342 
     751 3.0679132e-06   -796.32093            0   -796.32093     12920.33 
     752 3.3119366e-06   -796.32093            0   -796.32093    12920.317 
     753 3.5636439e-06   -796.32093            0   -796.32093    12920.303 
     754 3.8227822e-06   -796.32093            0   -796.32093    12920.289 
     755  4.08906e-06   -796.32093            0   -796.32093    12920.275 
     756 4.362007e-06   -796.32093            0   -796.32093     12920.26 
     757 4.6399818e-06   -796.32093            0   -796.32093    12920.244 
     758 4.9128907e-06   -796.32093            0   -796.32093    12920.228 
     759 5.1032932e-06   -796.32093            0   -796.32093    12920.212 
     760 4.6302607e-06   -796.32093            0   -796.32093    12920.197 
     761 1.774516e-06   -796.32094            0   -796.32094    12920.187 
     762 1.9224214e-07   -796.32094            0   -796.32094    12920.184 
     763 3.0765716e-07   -796.32094            0   -796.32094    12920.181 
     764 3.8553558e-07   -796.32094            0   -796.32094    12920.176 
     765 4.6724838e-07   -796.32094            0   -796.32094    12920.172 
     766 5.5659645e-07   -796.32094            0   -796.32094    12920.167 
     767 6.5348958e-07   -796.32094            0   -796.32094    12920.161 
     768 7.5783637e-07   -796.32094            0   -796.32094    12920.155 
     769 8.6953778e-07   -796.32094            0   -796.32094    12920.148 
     770 9.8848728e-07   -796.32094            0   -796.32094    12920.141 
     771 1.1145709e-06   -796.32094            0   -796.32094    12920.134 
     772 1.2476674e-06   -796.32094            0   -796.32094    12920.126 
     773 1.3876481e-06   -796.32094            0   -796.32094    12920.118 
     774 1.5343776e-06   -796.32094            0   -796.32094    12920.109 
     775 1.6877132e-06   -796.32094            0   -796.32094      12920.1 
     776 1.8475053e-06   -796.32094            0   -796.32094     12920.09 
     777 2.0135979e-06   -796.32094            0   -796.32094     12920.08 
     778 2.185828e-06   -796.32094            0   -796.32094    12920.069 
     779 2.3640263e-06   -796.32094            0   -796.32094    12920.058 
     780 2.5480173e-06   -796.32094            0   -796.32094    12920.047 
     781 2.7376192e-06   -796.32094            0   -796.32094    12920.035 
     782 2.9326441e-06   -796.32094            0   -796.32094    12920.022 
     783 3.1328985e-06   -796.32094            0   -796.32094     12920.01 
     784 3.338183e-06   -796.32094            0   -796.32094    12919.996 
     785 3.5482918e-06   -796.32094            0   -796.32094    12919.983 
     786 3.7630092e-06   -796.32094            0   -796.32094    12919.969 
     787 3.9820704e-06   -796.32094            0   -796.32094    12919.954 
     788 4.2047796e-06   -796.32094            0   -796.32094    12919.939 
     789 4.4258943e-06   -796.32095            0   -796.32095    12919.924 
     790 4.5876787e-06   -796.32095            0   -796.32095    12919.908 
     791 4.062798e-06   -796.32095            0   -796.32095    12919.893 
     792 9.2857113e-07   -796.32095            0   -796.32095    12919.886 
     793 5.3305017e-08   -796.32095            0   -796.32095    12919.885 
     794 9.233525e-08   -796.32095            0   -796.32095    12919.883 
     795 1.3743222e-07   -796.32095            0   -796.32095    12919.881 
     796 1.8165934e-07   -796.32095            0   -796.32095    12919.878 
     797 2.2907325e-07   -796.32095            0   -796.32095    12919.874 
     798 2.816334e-07   -796.32095            0   -796.32095    12919.871 
     799 3.3948129e-07   -796.32095            0   -796.32095    12919.867 
     800 4.0256521e-07   -796.32095            0   -796.32095    12919.862 
     801 4.708251e-07   -796.32095            0   -796.32095    12919.857 
     802 5.441956e-07   -796.32095            0   -796.32095    12919.852 
     803 6.2260605e-07   -796.32095            0   -796.32095    12919.847 
     804 7.0598058e-07   -796.32095            0   -796.32095    12919.841 
     805 7.9423814e-07   -796.32095            0   -796.32095    12919.834 
     806 8.8729261e-07   -796.32095            0   -796.32095    12919.828 
     807 9.8505284e-07   -796.32095            0   -796.32095     12919.82 
     808 1.0874228e-06   -796.32095            0   -796.32095    12919.813 
     809 1.1943014e-06   -796.32095            0   -796.32095    12919.805 
     810 1.3055831e-06   -796.32095            0   -796.32095    12919.797 
     811 1.4211575e-06   -796.32095            0   -796.32095    12919.788 
     812 1.5409097e-06   -796.32095            0   -796.32095    12919.779 
     813 1.6647202e-06   -796.32095            0   -796.32095     12919.77 
     814 1.7924652e-06   -796.32095            0   -796.32095     12919.76 
     815 1.9240167e-06   -796.32095            0   -796.32095     12919.75 
     816 2.0592424e-06   -796.32095            0   -796.32095    12919.739 
     817 2.1980062e-06   -796.32095            0   -796.32095    12919.728 
     818 2.3401678e-06   -796.32095            0   -796.32095    12919.717 
     819 2.4855828e-06   -796.32095            0   -796.32095    12919.706 
     820 2.634102e-06   -796.32095            0   -796.32095    12919.694 
     821 2.7855511e-06   -796.32095            0   -796.32095    12919.681 
     822 2.9395639e-06   -796.32096            0   -796.32096    12919.669 
     823 3.0935273e-06   -796.32096            0   -796.32096    12919.656 
     824 3.217449e-06   -796.32096            0   -796.32096    12919.642 
     825 2.9520368e-06   -796.32096            0   -796.32096    12919.629 
     826  8.02261e-07   -796.32096            0   -796.32096    12919.623 
     827 1.790097e-08   -796.32096            0   -796.32096    12919.622 
     828 3.2742867e-08   -796.32096            0   -796.32096    12919.621 
     829 5.6051271e-08   -796.32096            0   -796.32096     12919.62 
     830 8.3953162e-08   -796.32096            0   -796.32096    12919.618 
     831 1.1259611e-07   -796.32096            0   -796.32096    12919.616 
     832 1.4355801e-07   -796.32096            0   -796.32096    12919.613 
     833 1.7799958e-07   -796.32096            0   -796.32096     12919.61 
     834 2.1605075e-07   -796.32096            0   -796.32096    12919.607 
     835 2.5767991e-07   -796.32096            0   -796.32096    12919.603 
     836  3.02847e-07   -796.32096            0   -796.32096    12919.599 
     837 3.5150826e-07   -796.32096            0   -796.32096    12919.595 
     838 4.0361626e-07   -796.32096            0   -796.32096     12919.59 
     839 4.5911994e-07   -796.32096            0   -796.32096    12919.586 
     840 5.1796469e-07   -796.32096            0   -796.32096     12919.58 
     841 5.8009235e-07   -796.32096            0   -796.32096    12919.575 
     842 6.4544131e-07   -796.32096            0   -796.32096    12919.569 
     843 7.139465e-07   -796.32096            0   -796.32096    12919.563 
     844 7.8553953e-07   -796.32096            0   -796.32096    12919.556 
     845 8.6014868e-07   -796.32096            0   -796.32096     12919.55 
     846 9.3769899e-07   -796.32096            0   -796.32096    12919.543 
     847 1.0181123e-06   -796.32096            0   -796.32096    12919.535 
     848 1.1013075e-06   -796.32096            0   -796.32096    12919.527 
     849 1.1872002e-06   -796.32096            0   -796.32096    12919.519 
     850 1.2757033e-06   -796.32096            0   -796.32096    12919.511 
     851 1.3667266e-06   -796.32096            0   -796.32096    12919.502 
     852 1.4601773e-06   -796.32096            0   -796.32096    12919.493 
     853 1.5559597e-06   -796.32096            0   -796.32096    12919.484 
     854 1.6539755e-06   -796.32096            0   -796.32096    12919.475 
     855 1.7541238e-06   -796.32096            0   -796.32096    12919.465 
     856 1.8562958e-06   -796.32096            0   -796.32096    12919.455 
     857 1.960343e-06   -796.32096            0   -796.32096    12919.444 
     858 2.0656359e-06   -796.32096            0   -796.32096    12919.434 
     859 2.1657938e-06   -796.32097            0   -796.32097    12919.423 
     860 2.178773e-06   -796.32097            0   -796.32097    12919.411 
     861 1.3488508e-06   -796.32097            0   -796.32097    12919.403 
     862 4.4182295e-08   -796.32097            0   -796.32097    12919.401 
     863 9.0020335e-08   -796.32097            0   -796.32097    12919.399 
     864 1.1840642e-07   -796.32097            0   -796.32097    12919.397 
     865 1.4412194e-07   -796.32097            0   -796.32097    12919.394 
     866 1.7231647e-07   -796.32097            0   -796.32097    12919.391 
     867 2.0294201e-07   -796.32097            0   -796.32097    12919.388 
     868 2.3596841e-07   -796.32097            0   -796.32097    12919.385 
     869 2.7136308e-07   -796.32097            0   -796.32097    12919.381 
     870 3.0909091e-07   -796.32097            0   -796.32097    12919.377 
     871 3.4911432e-07   -796.32097            0   -796.32097    12919.373 
     872 3.9139326e-07   -796.32097            0   -796.32097    12919.368 
     873 4.3588528e-07   -796.32097            0   -796.32097    12919.363 
     874 4.8254554e-07   -796.32097            0   -796.32097    12919.358 
     875 5.3132686e-07   -796.32097            0   -796.32097    12919.353 
     876 5.8217979e-07   -796.32097            0   -796.32097    12919.347 
     877 6.3505262e-07   -796.32097            0   -796.32097    12919.341 
     878 6.8989142e-07   -796.32097            0   -796.32097    12919.335 
     879 7.4664014e-07   -796.32097            0   -796.32097    12919.329 
     880 8.0524058e-07   -796.32097            0   -796.32097    12919.322 
     881 8.6563256e-07   -796.32097            0   -796.32097    12919.315 
     882 9.2775353e-07   -796.32097            0   -796.32097    12919.308 
     883 9.9153865e-07   -796.32097            0   -796.32097      12919.3 
     884 1.0569134e-06   -796.32097            0   -796.32097    12919.293 
     885 1.1237557e-06   -796.32097            0   -796.32097    12919.285 
     886 1.1915107e-06   -796.32097            0   -796.32097    12919.277 
     887 1.2556942e-06   -796.32097            0   -796.32097    12919.268 
     888 1.2723968e-06   -796.32097            0   -796.32097     12919.26 
     889 9.0456055e-07   -796.32097            0   -796.32097    12919.253 
     890 9.3800448e-08   -796.32097            0   -796.32097     12919.25 
     891 9.829708e-08   -796.32097            0   -796.32097    12919.248 
     892 1.1818734e-07   -796.32097            0   -796.32097    12919.246 
     893 1.3998435e-07   -796.32097            0   -796.32097    12919.243 
     894 1.6355707e-07   -796.32097            0   -796.32097     12919.24 
     895 1.8887953e-07   -796.32097            0   -796.32097    12919.237 
     896 2.1592607e-07   -796.32097            0   -796.32097    12919.234 
     897 2.4466956e-07   -796.32097            0   -796.32097     12919.23 
     898 2.7508095e-07   -796.32097            0   -796.32097    12919.226 
     899 3.071295e-07   -796.32097            0   -796.32097    12919.222 
     900 3.407826e-07   -796.32097            0   -796.32097    12919.218 
     901 3.7600599e-07   -796.32097            0   -796.32097    12919.213 
     902 4.1276361e-07   -796.32097            0   -796.32097    12919.209 
     903 4.5101782e-07   -796.32097            0   -796.32097    12919.204 
     904 4.9072906e-07   -796.32097            0   -796.32097    12919.198 
     905 5.3185626e-07   -796.32097            0   -796.32097    12919.193 
     906 5.7435495e-07   -796.32097            0   -796.32097    12919.187 
     907 6.1817466e-07   -796.32098            0   -796.32098    12919.181 
     908 6.6322925e-07   -796.32098            0   -796.32098    12919.175 
     909 7.092465e-07   -796.32098            0   -796.32098    12919.169 
     910 7.5464755e-07   -796.32098            0   -796.32098    12919.162 
     911 7.8841058e-07   -796.32098            0   -796.32098    12919.156 
     912 7.3248651e-07   -796.32098            0   -796.32098    12919.149 
     913 3.3233439e-07   -796.32098            0   -796.32098    12919.145 
     914 4.0355641e-08   -796.32098            0   -796.32098    12919.144 
     915 6.199387e-08   -796.32098            0   -796.32098    12919.142 
     916 7.6089446e-08   -796.32098            0   -796.32098     12919.14 
     917 9.1544097e-08   -796.32098            0   -796.32098    12919.138 
     918 1.0838014e-07   -796.32098            0   -796.32098    12919.135 
     919 1.265808e-07   -796.32098            0   -796.32098    12919.133 
     920 1.4612783e-07   -796.32098            0   -796.32098     12919.13 
     921 1.6700156e-07   -796.32098            0   -796.32098    12919.127 
     922 1.8918085e-07   -796.32098            0   -796.32098    12919.124 
     923 2.1264318e-07   -796.32098            0   -796.32098     12919.12 
     924 2.3736461e-07   -796.32098            0   -796.32098    12919.117 
     925 2.6331986e-07   -796.32098            0   -796.32098    12919.113 
     926 2.9048227e-07   -796.32098            0   -796.32098    12919.109 
     927 3.1882389e-07   -796.32098            0   -796.32098    12919.105 
     928 3.4831545e-07   -796.32098            0   -796.32098      12919.1 
     929 3.7892643e-07   -796.32098            0   -796.32098    12919.096 
     930 4.1062506e-07   -796.32098            0   -796.32098    12919.091 
     931 4.4337838e-07   -796.32098            0   -796.32098    12919.086 
     932 4.771522e-07   -796.32098            0   -796.32098    12919.081 
     933 5.1191127e-07   -796.32098            0   -796.32098    12919.075 
     934 5.4761885e-07   -796.32098            0   -796.32098     12919.07 
     935 5.8423652e-07   -796.32098            0   -796.32098    12919.064 
     936 6.2171522e-07   -796.32098            0   -796.32098    12919.058 
     937 6.5993703e-07   -796.32098            0   -796.32098    12919.052 
     938 6.9810613e-07   -796.32098            0   -796.32098    12919.046 
     939 7.2864623e-07   -796.32098            0   -796.32098    12919.039 
     940 6.7611824e-07   -796.32098            0   -796.32098    12919.033 
     941 2.3580814e-07   -796.32098            0   -796.32098    12919.029 
     942 1.0302451e-08   -796.32098            0   -796.32098    12919.029 
     943 1.8717112e-08   -796.32098            0   -796.32098    12919.028 
     944 2.826512e-08   -796.32098            0   -796.32098    12919.027 
     945 3.6972459e-08   -796.32098            0   -796.32098    12919.025 
     946 4.6267645e-08   -796.32098            0   -796.32098    12919.024 
     947 5.6559816e-08   -796.32098            0   -796.32098    12919.022 
     948 6.7856167e-08   -796.32098            0   -796.32098     12919.02 
     949 8.0145431e-08   -796.32098            0   -796.32098    12919.018 
     950 9.3415255e-08   -796.32098            0   -796.32098    12919.016 
     951 1.0765222e-07   -796.32098            0   -796.32098    12919.014 
     952 1.2284187e-07   -796.32098            0   -796.32098    12919.011 
     953 1.3896868e-07   -796.32098            0   -796.32098    12919.008 
     954 1.5601615e-07   -796.32098            0   -796.32098    12919.005 
     955 1.7396672e-07   -796.32098            0   -796.32098    12919.002 
     956 1.9280189e-07   -796.32098            0   -796.32098    12918.999 
     957 2.1250215e-07   -796.32098            0   -796.32098    12918.996 
     958 2.3304706e-07   -796.32098            0   -796.32098    12918.992 
     959 2.5441524e-07   -796.32098            0   -796.32098    12918.988 
     960 2.765844e-07   -796.32098            0   -796.32098    12918.984 
     961 2.9953134e-07   -796.32098            0   -796.32098     12918.98 
     962 3.2323203e-07   -796.32098            0   -796.32098    12918.976 
     963 3.4766155e-07   -796.32098            0   -796.32098    12918.971 
     964 3.7279421e-07   -796.32098            0   -796.32098    12918.967 
     965 3.9860347e-07   -796.32098            0   -796.32098    12918.962 
     966 4.2506207e-07   -796.32098            0   -796.32098    12918.957 
     967 4.5214179e-07   -796.32098            0   -796.32098    12918.952 
     968 4.798131e-07   -796.32098            0   -796.32098    12918.947 
     969 5.0803647e-07   -796.32099            0   -796.32099    12918.941 
     970 5.3668216e-07   -796.32099            0   -796.32099    12918.936 
     971 5.6454749e-07   -796.32099            0   -796.32099     12918.93 
     972 5.7710277e-07   -796.32099            0   -796.32099    12918.924 
     973 4.2665074e-07   -796.32099            0   -796.32099    12918.919 
     974 3.2419176e-08   -796.32099            0   -796.32099    12918.918 
     975 3.8050778e-08   -796.32099            0   -796.32099    12918.917 
     976 4.5834209e-08   -796.32099            0   -796.32099    12918.915 
     977 5.4322818e-08   -796.32099            0   -796.32099    12918.913 
     978 6.3503892e-08   -796.32099            0   -796.32099    12918.911 
     979 7.3368008e-08   -796.32099            0   -796.32099    12918.909 
     980 8.3905056e-08   -796.32099            0   -796.32099    12918.907 
     981 9.5104219e-08   -796.32099            0   -796.32099    12918.905 
     982 1.0695394e-07   -796.32099            0   -796.32099    12918.903 
     983 1.1944197e-07   -796.32099            0   -796.32099      12918.9 
     984 1.3255532e-07   -796.32099            0   -796.32099    12918.897 
     985 1.4628035e-07   -796.32099            0   -796.32099    12918.894 
     986 1.606027e-07   -796.32099            0   -796.32099    12918.891 
     987 1.7550741e-07   -796.32099            0   -796.32099    12918.888 
     988 1.9097878e-07   -796.32099            0   -796.32099    12918.885 
     989 2.0700055e-07   -796.32099            0   -796.32099    12918.882 
     990 2.235556e-07   -796.32099            0   -796.32099    12918.878 
     991 2.4062593e-07   -796.32099            0   -796.32099    12918.874 
     992 2.581893e-07   -796.32099            0   -796.32099     12918.87 
     993 2.7620477e-07   -796.32099            0   -796.32099    12918.866 
     994 2.944912e-07   -796.32099            0   -796.32099    12918.862 
     995 3.1181857e-07   -796.32099            0   -796.32099    12918.858 
     996 3.1822096e-07   -796.32099            0   -796.32099    12918.854 
     997 2.4654574e-07   -796.32099            0   -796.32099     12918.85 
     998 4.6967464e-08   -796.32099            0   -796.32099    12918.848 
     999 2.147153e-08   -796.32099            0   -796.32099    12918.847 
    1000 2.6959545e-08   -796.32099            0   -796.32099    12918.846 
    1001 3.268893e-08   -796.32099            0   -796.32099    12918.845 
    1002 3.8955247e-08   -796.32099            0   -796.32099    12918.844 
    1003 4.575032e-08   -796.32099            0   -796.32099    12918.842 
    1004 5.3067206e-08   -796.32099            0   -796.32099     12918.84 
    1005 6.089839e-08   -796.32099            0   -796.32099    12918.838 
    1006 6.9235806e-08   -796.32099            0   -796.32099    12918.836 
    1007 7.8070824e-08   -796.32099            0   -796.32099    12918.834 
    1008 8.739427e-08   -796.32099            0   -796.32099    12918.832 
    1009 9.7196426e-08   -796.32099            0   -796.32099     12918.83 
    1010 1.0746705e-07   -796.32099            0   -796.32099    12918.827 
    1011 1.1819537e-07   -796.32099            0   -796.32099    12918.825 
    1012 1.2937012e-07   -796.32099            0   -796.32099    12918.822 
    1013 1.4097952e-07   -796.32099            0   -796.32099    12918.819 
    1014 1.5301131e-07   -796.32099            0   -796.32099    12918.816 
    1015 1.6545275e-07   -796.32099            0   -796.32099    12918.813 
    1016 1.7829063e-07   -796.32099            0   -796.32099     12918.81 
    1017 1.9151102e-07   -796.32099            0   -796.32099    12918.807 
    1018 2.0509864e-07   -796.32099            0   -796.32099    12918.803 
    1019 2.1902956e-07   -796.32099            0   -796.32099      12918.8 
    1020 2.3322267e-07   -796.32099            0   -796.32099    12918.796 
    1021 2.471045e-07   -796.32099            0   -796.32099    12918.792 
    1022 2.5570334e-07   -796.32099            0   -796.32099    12918.788 
    1023 2.1842251e-07   -796.32099            0   -796.32099    12918.785 
[...]
    2065 3.9086044e-06   -796.31251            0   -796.31251    13014.884 
    2066 4.1718923e-06   -796.31251            0   -796.31251    13014.871 
    2067 4.4383769e-06   -796.31251            0   -796.31251    13014.858 
    2068 4.7073634e-06   -796.31251            0   -796.31251    13014.844 
    2069 4.9781428e-06   -796.31251            0   -796.31251    13014.829 
    2070 5.2499744e-06   -796.31251            0   -796.31251    13014.815 
    2071 5.5219067e-06   -796.31251            0   -796.31251      13014.8 
    2072 5.7908585e-06   -796.31251            0   -796.31251    13014.784 
    2073 6.0286845e-06   -796.31251            0   -796.31251    13014.769 
    2074 5.898791e-06   -796.31251            0   -796.31251    13014.753 
    2075 2.9254304e-06   -796.31251            0   -796.31251    13014.742 
    2076 5.4580292e-08   -796.31251            0   -796.31251    13014.741 
    2077 1.0456618e-07   -796.31251            0   -796.31251    13014.739 
    2078 1.7630219e-07   -796.31251            0   -796.31251    13014.737 
    2079 2.3872439e-07   -796.31251            0   -796.31251    13014.734 
    2080 2.991654e-07   -796.31251            0   -796.31251    13014.731 
    2081 3.6537434e-07   -796.31251            0   -796.31251    13014.727 
    2082 4.3774258e-07   -796.31251            0   -796.31251    13014.723 
    2083 5.1609864e-07   -796.31251            0   -796.31251    13014.719 
    2084 6.0025409e-07   -796.31251            0   -796.31251    13014.714 
    2085 6.9000517e-07   -796.31251            0   -796.31251    13014.709 
    2086 7.8513314e-07   -796.31251            0   -796.31251    13014.704 
    2087 8.8540473e-07   -796.31251            0   -796.31251    13014.698 
    2088 9.9057269e-07   -796.31251            0   -796.31251    13014.692 
    2089 1.1003762e-06   -796.31251            0   -796.31251    13014.685 
    2090 1.2145414e-06   -796.31251            0   -796.31251    13014.679 
    2091 1.3327822e-06   -796.31251            0   -796.31251    13014.672 
    2092 1.4548003e-06   -796.31251            0   -796.31251    13014.664 
    2093 1.5802865e-06   -796.31251            0   -796.31251    13014.656 
    2094 1.7089207e-06   -796.31251            0   -796.31251    13014.648 
    2095 1.8403731e-06   -796.31251            0   -796.31251     13014.64 
    2096 1.9743043e-06   -796.31251            0   -796.31251    13014.631 
    2097 2.1103665e-06   -796.31251            0   -796.31251    13014.622 
    2098 2.2482039e-06   -796.31251            0   -796.31251    13014.613 
    2099 2.3874533e-06   -796.31251            0   -796.31251    13014.603 
    2100 2.527745e-06   -796.31251            0   -796.31251    13014.593 
    2101 2.6687033e-06   -796.31251            0   -796.31251    13014.583 
    2102 2.8099382e-06   -796.31251            0   -796.31251    13014.573 
    2103 2.9509918e-06   -796.31251            0   -796.31251    13014.562 
    2104 3.0905509e-06   -796.31251            0   -796.31251    13014.551 
    2105 3.2167006e-06   -796.31251            0   -796.31251     13014.54 
    2106 3.1710935e-06   -796.31251            0   -796.31251    13014.529 
    2107 1.6151482e-06   -796.31251            0   -796.31251    13014.522 
    2108 1.9862098e-08   -796.31251            0   -796.31251    13014.521 
    2109 3.7636688e-08   -796.31251            0   -796.31251     13014.52 
    2110 6.783027e-08   -796.31251            0   -796.31251    13014.518 
    2111 9.9830882e-08   -796.31251            0   -796.31251    13014.517 
    2112 1.2865596e-07   -796.31251            0   -796.31251    13014.515 
    2113 1.5951157e-07   -796.31251            0   -796.31251    13014.512 
    2114 1.9343978e-07   -796.31251            0   -796.31251     13014.51 
    2115 2.3039344e-07   -796.31251            0   -796.31251    13014.507 
    2116 2.7028301e-07   -796.31251            0   -796.31251    13014.504 
    2117 3.1301108e-07   -796.31251            0   -796.31251    13014.501 
    2118 3.5847257e-07   -796.31251            0   -796.31251    13014.497 
    2119 4.0655498e-07   -796.31251            0   -796.31251    13014.493 
    2120 4.5713864e-07   -796.31251            0   -796.31251    13014.489 
    2121 5.1009692e-07   -796.31251            0   -796.31251    13014.485 
    2122 5.652965e-07   -796.31251            0   -796.31251     13014.48 
    2123 6.2259768e-07   -796.31251            0   -796.31251    13014.476 
    2124 6.8185462e-07   -796.31251            0   -796.31251    13014.471 
    2125 7.4291568e-07   -796.31251            0   -796.31251    13014.466 
    2126 8.0562372e-07   -796.31251            0   -796.31251     13014.46 
    2127 8.6981642e-07   -796.31251            0   -796.31251    13014.455 
    2128 9.3532662e-07   -796.31251            0   -796.31251    13014.449 
    2129 1.0019826e-06   -796.31251            0   -796.31251    13014.443 
    2130 1.0696087e-06   -796.31251            0   -796.31251    13014.437 
    2131 1.138025e-06   -796.31251            0   -796.31251     13014.43 
    2132 1.2070486e-06   -796.31251            0   -796.31251    13014.424 
    2133 1.2764928e-06   -796.31251            0   -796.31251    13014.417 
    2134 1.3461657e-06   -796.31251            0   -796.31251     13014.41 
    2135 1.4158412e-06   -796.31251            0   -796.31251    13014.403 
    2136 1.4849596e-06   -796.31251            0   -796.31251    13014.396 
    2137 1.5487343e-06   -796.31251            0   -796.31251    13014.388 
    2138 1.5463124e-06   -796.31251            0   -796.31251    13014.381 
    2139 9.1195263e-07   -796.31251            0   -796.31251    13014.375 
    2140 2.0809922e-08   -796.31251            0   -796.31251    13014.374 
    2141 4.2470689e-08   -796.31251            0   -796.31251    13014.373 
    2142 6.3725102e-08   -796.31251            0   -796.31251    13014.372 
    2143 7.9507385e-08   -796.31251            0   -796.31251     13014.37 
    2144 9.6489539e-08   -796.31251            0   -796.31251    13014.368 
    2145 1.1499358e-07   -796.31251            0   -796.31251    13014.367 
    2146 1.3497231e-07   -796.31251            0   -796.31251    13014.365 
    2147 1.5637641e-07   -796.31251            0   -796.31251    13014.362 
    2148 1.7915269e-07   -796.31251            0   -796.31251     13014.36 
    2149 2.0324417e-07   -796.31251            0   -796.31251    13014.357 
    2150 2.2859025e-07   -796.31251            0   -796.31251    13014.354 
    2151 2.5512679e-07   -796.31251            0   -796.31251    13014.352 
    2152 2.8278627e-07   -796.31251            0   -796.31251    13014.349 
    2153 3.1149794e-07   -796.31251            0   -796.31251    13014.345 
    2154 3.4118794e-07   -796.31251            0   -796.31251    13014.342 
    2155 3.7177949e-07   -796.31251            0   -796.31251    13014.338 
    2156 4.0319301e-07   -796.31251            0   -796.31251    13014.335 
    2157 4.3534634e-07   -796.31251            0   -796.31251    13014.331 
    2158 4.6815485e-07   -796.31251            0   -796.31251    13014.327 
    2159 5.0153166e-07   -796.31251            0   -796.31251    13014.323 
    2160 5.3538776e-07   -796.31251            0   -796.31251    13014.318 
    2161 5.696322e-07   -796.31251            0   -796.31251    13014.314 
    2162 6.041714e-07   -796.31251            0   -796.31251     13014.31 
    2163 6.3890479e-07   -796.31251            0   -796.31251    13014.305 
    2164 6.7367419e-07   -796.31251            0   -796.31251      13014.3 
    2165 7.0776722e-07   -796.31251            0   -796.31251    13014.295 
    2166 7.3411246e-07   -796.31251            0   -796.31251     13014.29 
    2167 6.7433556e-07   -796.31251            0   -796.31251    13014.286 
    2168 1.9834298e-07   -796.31251            0   -796.31251    13014.283 
    2169 4.6721666e-09   -796.31251            0   -796.31251    13014.283 
    2170 8.5839267e-09   -796.31251            0   -796.31251    13014.282 
    2171 1.459432e-08   -796.31251            0   -796.31251    13014.282 
    2172 2.1388295e-08   -796.31251            0   -796.31251    13014.281 
    2173 2.8241084e-08   -796.31251            0   -796.31251     13014.28 
    2174 3.5684854e-08   -796.31251            0   -796.31251    13014.279 
    2175 4.3929136e-08   -796.31251            0   -796.31251    13014.278 
    2176 5.297323e-08   -796.31251            0   -796.31251    13014.277 
    2177 6.2795039e-08   -796.31251            0   -796.31251    13014.275 
    2178 7.3370211e-08   -796.31251            0   -796.31251    13014.274 
    2179 8.4672344e-08   -796.31251            0   -796.31251    13014.272 
    2180 9.6673033e-08   -796.31251            0   -796.31251     13014.27 
    2181 1.0934193e-07   -796.31251            0   -796.31251    13014.269 
    2182 1.2264683e-07   -796.31251            0   -796.31251    13014.267 
    2183 1.3655368e-07   -796.31251            0   -796.31251    13014.265 
    2184 1.5102674e-07   -796.31251            0   -796.31251    13014.262 
    2185 1.6602858e-07   -796.31251            0   -796.31251     13014.26 
    2186 1.8152022e-07   -796.31251            0   -796.31251    13014.258 
    2187 1.9746115e-07   -796.31251            0   -796.31251    13014.255 
    2188 2.1380949e-07   -796.31251            0   -796.31251    13014.253 
    2189  2.30522e-07   -796.31251            0   -796.31251     13014.25 
    2190 2.4755424e-07   -796.31251            0   -796.31251    13014.247 
    2191 2.6486063e-07   -796.31251            0   -796.31251    13014.244 
    2192 2.8239453e-07   -796.31251            0   -796.31251    13014.241 
    2193 3.0010838e-07   -796.31251            0   -796.31251    13014.238 
    2194 3.1795369e-07   -796.31251            0   -796.31251    13014.235 
    2195 3.3588129e-07   -796.31251            0   -796.31251    13014.232 
    2196 3.5383988e-07   -796.31251            0   -796.31251    13014.228 
    2197 3.7176765e-07   -796.31251            0   -796.31251    13014.225 
    2198 3.894615e-07   -796.31251            0   -796.31251    13014.221 
    2199 4.0487298e-07   -796.31251            0   -796.31251    13014.218 
    2200 3.8962012e-07   -796.31251            0   -796.31251    13014.214 
    2201 1.4689975e-07   -796.31251            0   -796.31251    13014.212 
    2202 6.0368715e-10   -796.31251            0   -796.31251    13014.212 
    2203 1.1952695e-09   -796.31251            0   -796.31251    13014.212 
    2204 2.2513584e-09   -796.31251            0   -796.31251    13014.212 
    2205 4.1288404e-09   -796.31251            0   -796.31251    13014.212 
    2206 6.9623988e-09   -796.31251            0   -796.31251    13014.211 
    2207 1.0136919e-08   -796.31251            0   -796.31251    13014.211 
    2208 1.3368389e-08   -796.31251            0   -796.31251     13014.21 
    2209 1.6894216e-08   -796.31251            0   -796.31251    13014.209 
    2210 2.0800778e-08   -796.31251            0   -796.31251    13014.209 
    2211 2.5086387e-08   -796.31251            0   -796.31251    13014.208 
    2212 2.9740523e-08   -796.31251            0   -796.31251    13014.207 
    2213 3.4751553e-08   -796.31251            0   -796.31251    13014.206 
    2214 4.0106861e-08   -796.31251            0   -796.31251    13014.205 
    2215 4.5792875e-08   -796.31251            0   -796.31251    13014.204 
    2216 5.1795097e-08   -796.31251            0   -796.31251    13014.202 
    2217 5.8098138e-08   -796.31251            0   -796.31251    13014.201 
    2218 6.4685744e-08   -796.31251            0   -796.31251      13014.2 
    2219 7.1540839e-08   -796.31251            0   -796.31251    13014.198 
    2220 7.8645557e-08   -796.31251            0   -796.31251    13014.197 
    2221 8.5981282e-08   -796.31251            0   -796.31251    13014.195 
    2222 9.352869e-08   -796.31251            0   -796.31251    13014.193 
    2223 1.0126779e-07   -796.31251            0   -796.31251    13014.192 
    2224 1.0917796e-07   -796.31251            0   -796.31251     13014.19 
    2225 1.1723801e-07   -796.31251            0   -796.31251    13014.188 
    2226 1.2542619e-07   -796.31251            0   -796.31251    13014.186 
    2227 1.337203e-07   -796.31251            0   -796.31251    13014.184 
    2228 1.4209765e-07   -796.31251            0   -796.31251    13014.182 
    2229 1.5053519e-07   -796.31251            0   -796.31251     13014.18 
    2230 1.5900939e-07   -796.31251            0   -796.31251    13014.178 
    2231 1.6749593e-07   -796.31251            0   -796.31251    13014.176 
    2232 1.7596318e-07   -796.31251            0   -796.31251    13014.173 
    2233 1.8429373e-07   -796.31251            0   -796.31251    13014.171 
    2234 1.9117701e-07   -796.31251            0   -796.31251    13014.169 
    2235 1.7842973e-07   -796.31251            0   -796.31251    13014.166 
    2236   4.8732e-08   -796.31251            0   -796.31251    13014.165 
    2237 1.9313025e-10   -796.31251            0   -796.31251    13014.165 
    2238 4.2082435e-10   -796.31251            0   -796.31251    13014.165 
    2239 8.1939377e-10   -796.31251            0   -796.31251    13014.165 
    2240 1.5178024e-09   -796.31251            0   -796.31251    13014.165 
    2241 2.6203233e-09   -796.31251            0   -796.31251    13014.165 
    2242 3.9841124e-09   -796.31251            0   -796.31251    13014.164 
    2243 5.4194351e-09   -796.31251            0   -796.31251    13014.164 
    2244 6.974257e-09   -796.31251            0   -796.31251    13014.163 
    2245 8.7032018e-09   -796.31251            0   -796.31251    13014.163 
    2246 1.0611773e-08   -796.31251            0   -796.31251    13014.162 
    2247 1.269558e-08   -796.31251            0   -796.31251    13014.162 
    2248 1.4949399e-08   -796.31251            0   -796.31251    13014.161 
    2249 1.7367539e-08   -796.31251            0   -796.31251    13014.161 
    2250 1.9943851e-08   -796.31251            0   -796.31251     13014.16 
    2251 2.2671747e-08   -796.31251            0   -796.31251    13014.159 
    2252 2.5544207e-08   -796.31251            0   -796.31251    13014.158 
    2253  2.85538e-08   -796.31251            0   -796.31251    13014.157 
    2254 3.1692698e-08   -796.31251            0   -796.31251    13014.156 
    2255 3.4952694e-08   -796.31251            0   -796.31251    13014.155 
    2256 3.8325219e-08   -796.31251            0   -796.31251    13014.154 
    2257 4.1801363e-08   -796.31251            0   -796.31251    13014.153 
    2258 4.5371891e-08   -796.31251            0   -796.31251    13014.152 
    2259 4.9027269e-08   -796.31251            0   -796.31251    13014.151 
    2260 5.2757676e-08   -796.31251            0   -796.31251     13014.15 
    2261 5.6553038e-08   -796.31251            0   -796.31251    13014.149 
    2262 6.040303e-08   -796.31251            0   -796.31251    13014.147 
    2263 6.4297134e-08   -796.31251            0   -796.31251    13014.146 
    2264 6.8224582e-08   -796.31251            0   -796.31251    13014.145 
    2265 7.2174561e-08   -796.31251            0   -796.31251    13014.143 
    2266 7.6135753e-08   -796.31251            0   -796.31251    13014.142 
    2267 8.009726e-08   -796.31251            0   -796.31251     13014.14 
    2268 8.4041552e-08   -796.31251            0   -796.31251    13014.139 
    2269 8.790599e-08   -796.31251            0   -796.31251    13014.137 
    2270 9.0803709e-08   -796.31251            0   -796.31251    13014.136 
    2271 8.0365552e-08   -796.31251            0   -796.31251    13014.134 
    2272 1.2683616e-08   -796.31251            0   -796.31251    13014.133 
    2273 3.5175675e-10   -796.31251            0   -796.31251    13014.133 
    2274 6.5200958e-10   -796.31251            0   -796.31251    13014.133 
    2275 1.1110606e-09   -796.31251            0   -796.31251    13014.133 
    2276 1.6838487e-09   -796.31251            0   -796.31251    13014.133 
    2277 2.3081225e-09   -796.31251            0   -796.31251    13014.133 
    2278 2.9941795e-09   -796.31251            0   -796.31251    13014.133 
    2279 3.7601621e-09   -796.31251            0   -796.31251    13014.132 
    2280 4.6082728e-09   -796.31251            0   -796.31251    13014.132 
    2281 5.5365601e-09   -796.31251            0   -796.31251    13014.132 
    2282 6.542675e-09   -796.31251            0   -796.31251    13014.131 
    2283 7.6240672e-09   -796.31251            0   -796.31251    13014.131 
    2284 8.7779788e-09   -796.31251            0   -796.31251     13014.13 
    2285 1.0001449e-08   -796.31251            0   -796.31251     13014.13 
    2286 1.1291318e-08   -796.31251            0   -796.31251    13014.129 
    2287 1.264424e-08   -796.31251            0   -796.31251    13014.129 
    2288 1.4056685e-08   -796.31251            0   -796.31251    13014.128 
    2289 1.5524948e-08   -796.31251            0   -796.31251    13014.127 
    2290 1.7045159e-08   -796.31251            0   -796.31251    13014.127 
    2291 1.8613291e-08   -796.31251            0   -796.31251    13014.126 
    2292 2.0225169e-08   -796.31251            0   -796.31251    13014.125 
    2293 2.1876478e-08   -796.31251            0   -796.31251    13014.125 
    2294 2.3562773e-08   -796.31251            0   -796.31251    13014.124 
    2295 2.5279492e-08   -796.31251            0   -796.31251    13014.123 
    2296 2.7021961e-08   -796.31251            0   -796.31251    13014.122 
    2297 2.878541e-08   -796.31251            0   -796.31251    13014.121 
    2298 3.0564971e-08   -796.31251            0   -796.31251     13014.12 
    2299 3.2355718e-08   -796.31251            0   -796.31251    13014.119 
    2300 3.4152609e-08   -796.31251            0   -796.31251    13014.119 
    2301 3.5950656e-08   -796.31251            0   -796.31251    13014.118 
    2302 3.7744532e-08   -796.31251            0   -796.31251    13014.117 
    2303 3.9529308e-08   -796.31251            0   -796.31251    13014.116 
    2304 4.1295155e-08   -796.31251            0   -796.31251    13014.115 
    2305 4.2978138e-08   -796.31251            0   -796.31251    13014.113 
    2306 4.3478173e-08   -796.31251            0   -796.31251    13014.113 
    2307 2.7722647e-08   -796.31251            0   -796.31251    13014.111 
    2308 3.9265548e-11   -796.31251            0   -796.31251    13014.111 
Loop time of 421.229 on 16 procs for 842 steps with 127 atoms

99.1% CPU use with 16 MPI tasks x no OpenMP threads

Minimization stats:
  Stopping criterion = energy tolerance
  Energy initial, next-to-last, final = 
        -796.321007543      -796.31251387      -796.31251387
  Force two-norm initial, final = 0.0783121 2.85597e-05
  Force max component initial, final = 0.0708672 1.07847e-05
  Final line search alpha, max atom move = 0 0
  Iterations, force evaluations = 842 842

MPI task timing breakdown:
Section |  min time  |  avg time  |  max time  |%varavg| %total
---------------------------------------------------------------
Pair    | 224.4      | 257.96     | 271.71     |  66.3 | 61.24
Neigh   | 0          | 0          | 0          |   0.0 |  0.00
Comm    | 0.16457    | 13.91      | 47.478     | 285.4 |  3.30
Output  | 0.13233    | 0.13423    | 0.138      |   0.5 |  0.03
Modify  | 91.09      | 91.095     | 91.099     |   0.0 | 21.63
Other   |            | 58.13      |            |       | 13.80

Nlocal:    7.9375 ave 8 max 7 min
Histogram: 1 0 0 0 0 0 0 0 0 15
Nghost:    818.062 ave 821 max 816 min
Histogram: 8 0 0 0 0 0 0 0 7 1
Neighs:    0 ave 0 max 0 min
Histogram: 16 0 0 0 0 0 0 0 0 0
FullNghs:  1600.12 ave 1630 max 1412 min
Histogram: 1 0 0 0 0 0 0 0 5 10

Total # of neighbors = 25602
Ave neighs/atom = 201.591
Neighbor list builds = 0
Dangerous builds = 0
Total wall time: 0:19:23
