LAMMPS (12 Dec 2018)
Processor partition = 5
Reading data file ...
  orthogonal box = (0 0 0) to (10.0025 12.3537 10.615)
  2 by 4 by 2 MPI processor grid
  reading atoms ...
  127 atoms
Reading potential file lammps-force.nnp with DATE: 20201105
Neighbor list info ...
  update every 1 steps, delay 0 steps, check yes
  max neighbors/atom: 2000, page size: 100000
  master list distance cutoff = 8
  ghost atom cutoff = 8
  binsize = 4, bins = 3 4 3
  1 neighbor lists, perpetual/occasional/extra = 1 0 0
  (1) pair nnp3v, perpetual
      attributes: full, newton on
      pair build: full/bin/atomonly
      stencil: full/bin/3d
      bin: standard
Setting up quickmin style minimization ...
  Unit style    : metal
  Current step  : 0
Per MPI rank memory allocation (min/avg/max) = 2.736 | 2.736 | 2.736 Mbytes
Step Temp E_pair E_mol TotEng Press 
       0            0   -796.68047            0   -796.68047     13401.66 
       6  0.092325754   -796.68154            0   -796.68004    13408.421 
Loop time of 2.93393 on 16 procs for 6 steps with 127 atoms

96.0% CPU use with 16 MPI tasks x no OpenMP threads

Minimization stats:
  Stopping criterion = energy tolerance
  Energy initial, next-to-last, final = 
        -796.680469343     -796.681189813     -796.681544239
  Force two-norm initial, final = 0.292034 0.283352
  Force max component initial, final = 0.0445202 0.0435203
  Final line search alpha, max atom move = 0 0
  Iterations, force evaluations = 6 6

MPI task timing breakdown:
Section |  min time  |  avg time  |  max time  |%varavg| %total
---------------------------------------------------------------
Pair    | 1.9123     | 2.2112     | 2.4769     |   8.5 | 75.37
Neigh   | 0          | 0          | 0          |   0.0 |  0.00
Comm    | 0.4409     | 0.71078    | 1.0055     |  14.9 | 24.23
Output  | 0          | 0          | 0          |   0.0 |  0.00
Modify  | 0          | 0          | 0          |   0.0 |  0.00
Other   |            | 0.01198    |            |       |  0.41

Nlocal:    7.9375 ave 8 max 7 min
Histogram: 1 0 0 0 0 0 0 0 0 15
Nghost:    819.812 ave 824 max 816 min
Histogram: 4 0 0 0 0 8 0 1 1 2
Neighs:    0 ave 0 max 0 min
Histogram: 16 0 0 0 0 0 0 0 0 0
FullNghs:  1602 ave 1623 max 1420 min
Histogram: 1 0 0 0 0 0 0 0 1 14

Total # of neighbors = 25632
Ave neighs/atom = 201.827
Neighbor list builds = 0
Dangerous builds = 0
Setting up quickmin style minimization ...
  Unit style    : metal
  Current step  : 0
Per MPI rank memory allocation (min/avg/max) = 4.736 | 4.737 | 4.737 Mbytes
Step Temp E_pair E_mol TotEng Press 
       0            0   -794.80382            0   -794.80382    18062.832 
       1    3.8653282   -794.80382            0   -794.74087    18114.096 
       2    16.740315   -794.92767            0   -794.65502    18117.825 
       3    39.904878   -795.15553            0   -794.50561    18116.016 
       4    73.871762   -795.44167            0   -794.23853    18157.323 
       5    110.72748   -795.71943            0   -793.91603    18141.748 
       6    132.13601    -795.9401            0   -793.78803    17743.382 
       7    130.22866   -796.09946            0   -793.97845     16911.14 
       8    124.61778   -796.21336            0   -794.18374    16213.462 
       9    122.97683   -796.29707            0   -794.29417    15892.459 
      10    129.87373   -796.35916            0   -794.24394    15933.851 
      11    162.97333   -796.37675            0   -793.72244    16068.494 
      12    7.8077541   -796.39542            0   -796.26825    14043.818 
      13    7.9914668   -796.40901            0   -796.27886    14099.534 
      14    5.4912301   -796.41734            0   -796.32791    14116.411 
      15    3.2741384   -796.42391            0   -796.37058    14102.865 
      16    3.5567966   -796.43076            0   -796.37283    14105.929 
      17    4.1677922   -796.43799            0   -796.37011    14110.693 
      18     4.817097   -796.44553            0   -796.36708    14115.158 
      19    5.4936561   -796.45333            0   -796.36385    14119.868 
      20    6.1918734    -796.4613            0   -796.36045    14125.202 
      21    6.9052083   -796.46939            0   -796.35693    14131.326 
      22    7.6265891   -796.47754            0   -796.35333    14138.306 
      23    8.3480999   -796.48569            0   -796.34973    14146.098 
      24    9.0613317   -796.49378            0    -796.3462    14154.691 
      25    9.7572308   -796.50176            0   -796.34284    14163.911 
      26    10.426345   -796.50957            0   -796.33976    14173.683 
      27    11.059168   -796.51717            0   -796.33705    14184.016 
      28     11.64698   -796.52452            0   -796.33483    14194.834 
      29    12.180745   -796.53159            0    -796.3332     14205.97 
      30    12.654959   -796.53833            0   -796.33222    14217.746 
      31    13.059149   -796.54472            0   -796.33203    14228.924 
      32    13.407686   -796.55074            0   -796.33237    14243.107 
      33     13.65886   -796.55636            0    -796.3339    14247.242 
      34    14.325879   -796.56129            0   -796.32797    14297.675 
      35    17.452403   -796.56219            0   -796.27794    14238.419 
      36   0.65622827   -796.56405            0   -796.55336    14037.725 
      37   0.70894445   -796.56549            0   -796.55394     14063.54 
      38   0.55904301   -796.56641            0    -796.5573    14083.887 
      39   0.34116613   -796.56706            0    -796.5615    14093.136 
      40    0.3189777   -796.56771            0   -796.56251    14097.422 
      41   0.36935703    -796.5684            0   -796.56239    14100.349 
      42   0.42915013   -796.56914            0   -796.56215    14103.039 
      43   0.49263788   -796.56993            0   -796.56191    14105.804 
      44   0.55928532   -796.57076            0   -796.56165     14108.69 
      45   0.62878593   -796.57163            0   -796.56139    14111.714 
      46   0.70083229   -796.57253            0   -796.56111    14114.883 
      47   0.77511456   -796.57346            0   -796.56084    14118.194 
      48   0.85132286   -796.57442            0   -796.56055     14121.64 
      49   0.92915168    -796.5754            0   -796.56026    14125.201 
      50     1.008304    -796.5764            0   -796.55997    14128.871 
      51    1.0884922   -796.57741            0   -796.55968    14132.636 
      52    1.1694419   -796.57844            0   -796.55939    14136.482 
      53    1.2508964   -796.57947            0    -796.5591    14140.393 
      54    1.3326188   -796.58051            0    -796.5588    14144.349 
      55     1.414396   -796.58154            0   -796.55851    14148.325 
      56    1.4960271   -796.58258            0   -796.55821    14152.301 
      57    1.5773452   -796.58361            0   -796.55792    14156.264 
      58    1.6581977   -796.58463            0   -796.55762    14160.197 
      59    1.7384667   -796.58564            0   -796.55733    14164.073 
      60    1.8180227   -796.58664            0   -796.55703    14167.869 
      61    1.8968556   -796.58761            0   -796.55672     14171.56 
      62    1.9747425   -796.58858            0   -796.55641    14175.123 
      63    2.0520348   -796.58952            0    -796.5561    14178.514 
      64    2.1275687   -796.59044            0   -796.55579     14181.76 
      65    2.2044814   -796.59133            0   -796.55543    14184.711 
      66    2.2705024    -796.5922            0   -796.55522    14187.709 
      67      2.34089   -796.59303            0    -796.5549    14189.267 
      68    1.9773139   -796.59357            0   -796.56137    14188.415 
      69   0.18298813   -796.59381            0   -796.59083    14163.348 
      70   0.12326527   -796.59397            0   -796.59197    14162.065 
      71   0.10992991   -796.59414            0   -796.59235    14162.044 
      72    0.1259798   -796.59431            0   -796.59226    14162.522 
      73   0.14306515   -796.59449            0   -796.59216    14162.978 
      74   0.16108817   -796.59469            0   -796.59206    14163.446 
      75    0.1799862   -796.59489            0   -796.59196    14163.916 
      76   0.19972514    -796.5951            0   -796.59185     14164.39 
      77   0.22025916   -796.59532            0   -796.59173    14164.862 
      78   0.24154672   -796.59555            0   -796.59161    14165.331 
      79   0.26354164   -796.59578            0   -796.59149    14165.791 
      80   0.28619941   -796.59602            0   -796.59136     14166.24 
      81   0.30947211   -796.59627            0   -796.59123    14166.672 
      82   0.33331393   -796.59652            0    -796.5911    14167.084 
      83   0.35767507   -796.59678            0   -796.59096    14167.472 
      84   0.38250929   -796.59705            0   -796.59082    14167.832 
      85   0.40776426   -796.59732            0   -796.59067    14168.157 
      86   0.43339558   -796.59759            0   -796.59053     14168.45 
      87   0.45934412   -796.59786            0   -796.59038    14168.694 
      88   0.48557639   -796.59814            0   -796.59024    14168.911 
      89    0.5120077   -796.59843            0   -796.59009    14169.043 
      90   0.53866158   -796.59871            0   -796.58994     14169.21 
      91   0.56533215     -796.599            0   -796.58979     14169.11 
      92   0.59245385   -796.59929            0   -796.58964    14169.512 
      93   0.61973561   -796.59958            0   -796.58948    14168.304 
      94   0.65729398   -796.59986            0   -796.58915    14171.748 
      95   0.75030715   -796.60006            0   -796.58784    14162.807 
      96   0.59712257    -796.6002            0   -796.59048    14174.705 
      97   0.05194962    -796.6003            0   -796.59945    14163.281 
      98   0.03297024   -796.60036            0   -796.59982    14160.701 
      99  0.028290917   -796.60041            0   -796.59995    14159.856 
     100  0.032739049   -796.60047            0   -796.59994    14159.678 
     101  0.038638365   -796.60054            0   -796.59991    14159.613 
     102  0.045026902   -796.60061            0   -796.59987    14159.543 
     103  0.051861021   -796.60068            0   -796.59984    14159.458 
     104   0.05912872   -796.60077            0    -796.5998    14159.359 
     105  0.066816802   -796.60085            0   -796.59976    14159.246 
     106  0.074911295   -796.60094            0   -796.59972     14159.12 
     107  0.083397451   -796.60104            0   -796.59968     14158.98 
     108  0.092259824   -796.60114            0   -796.59964    14158.825 
     109   0.10148224   -796.60125            0    -796.5996    14158.655 
     110   0.11104787   -796.60136            0   -796.59955    14158.469 
     111   0.12093924   -796.60147            0    -796.5995    14158.265 
     112   0.13113824   -796.60159            0   -796.59946    14158.043 
     113   0.14162634   -796.60172            0   -796.59941    14157.802 
     114   0.15238446   -796.60185            0   -796.59936    14157.541 
     115   0.16339279   -796.60198            0   -796.59932    14157.256 
     116   0.17463113   -796.60211            0   -796.59927    14156.949 
     117   0.18607927   -796.60225            0   -796.59922    14156.619 
     118   0.19771675    -796.6024            0   -796.59918    14156.266 
     119     0.209522   -796.60255            0   -796.59913    14155.888 
     120   0.22147337    -796.6027            0   -796.59909    14155.485 
     121   0.23354943   -796.60285            0   -796.59905    14155.057 
     122   0.24572777   -796.60301            0   -796.59901    14154.601 
     123   0.25798679   -796.60318            0   -796.59898    14154.119 
     124   0.27030325   -796.60334            0   -796.59894    14153.608 
     125   0.28265663   -796.60351            0   -796.59891     14153.07 
     126   0.29501995   -796.60369            0   -796.59888    14152.501 
     127   0.30735701   -796.60387            0   -796.59886    14151.906 
     128   0.31948298   -796.60405            0   -796.59885    14151.276 
     129   0.32971398   -796.60423            0   -796.59886    14150.604 
     130   0.31955445   -796.60442            0   -796.59921    14149.662 
     131   0.16318953   -796.60455            0   -796.60189    14146.964 
     132 0.0043373018   -796.60456            0   -796.60449    14144.799 
     133 0.0079944977   -796.60459            0   -796.60446    14144.743 
     134  0.011418599   -796.60462            0   -796.60444    14144.642 
     135  0.013885142   -796.60466            0   -796.60443    14144.509 
     136   0.01638894    -796.6047            0   -796.60443    14144.362 
     137  0.019080778   -796.60474            0   -796.60443    14144.203 
     138  0.021960805   -796.60479            0   -796.60443     14144.03 
     139  0.025024305   -796.60484            0   -796.60443    14143.845 
     140  0.028266274   -796.60489            0   -796.60443    14143.646 
     141  0.031681333   -796.60495            0   -796.60444    14143.433 
     142  0.035263829   -796.60501            0   -796.60444    14143.208 
     143  0.039007788   -796.60508            0   -796.60444    14142.969 
     144  0.042906974   -796.60514            0   -796.60444    14142.716 
     145  0.046954878   -796.60521            0   -796.60445    14142.449 
     146  0.051144751   -796.60529            0   -796.60445    14142.169 
     147  0.055469598   -796.60536            0   -796.60446    14141.875 
     148  0.059922197   -796.60544            0   -796.60447    14141.567 
     149  0.064495111   -796.60553            0   -796.60448    14141.246 
     150    0.0691807   -796.60562            0   -796.60449    14140.911 
     151  0.073971156   -796.60571            0    -796.6045    14140.561 
     152  0.078858472    -796.6058            0   -796.60452    14140.197 
     153  0.083834435    -796.6059            0   -796.60453    14139.818 
     154  0.088890793     -796.606            0   -796.60455    14139.425 
     155  0.094019128    -796.6061            0   -796.60457    14139.018 
     156  0.099210985   -796.60621            0   -796.60459    14138.597 
     157   0.10445723   -796.60632            0   -796.60462    14138.163 
     158   0.10974964   -796.60644            0   -796.60465    14137.716 
     159   0.11507918   -796.60655            0   -796.60468    14137.255 
     160   0.12043796   -796.60668            0   -796.60471    14136.779 
     161   0.12581477    -796.6068            0   -796.60475    14136.291 
     162   0.13120675   -796.60693            0   -796.60479    14135.784 
     163   0.13658832   -796.60706            0   -796.60484    14135.285 
     164   0.14199127    -796.6072            0   -796.60489    14134.712 
     165   0.14720254   -796.60734            0   -796.60494    14134.325 
     166   0.15192837   -796.60748            0   -796.60501    14133.248 
     167   0.14545466   -796.60762            0   -796.60525    14134.335 
     168  0.065257052   -796.60769            0   -796.60662     14129.99 
     169 0.0011914744    -796.6077            0   -796.60768    14129.481 
     170 0.0016894899   -796.60771            0   -796.60768    14129.855 
     171 0.0021888499   -796.60772            0   -796.60769    14130.177 
     172 0.0027064023   -796.60774            0    -796.6077    14130.375 
     173 0.0033384015   -796.60776            0   -796.60771     14130.44 
     174 0.0041161564   -796.60778            0   -796.60772    14130.413 
     175 0.0050049363   -796.60781            0   -796.60773    14130.338 
     176 0.0059821228   -796.60784            0   -796.60774    14130.239 
     177 0.0070416027   -796.60787            0   -796.60775    14130.128 
     178    0.0081816    -796.6079            0   -796.60777    14130.007 
     179 0.0094005302   -796.60794            0   -796.60778    14129.876 
     180   0.01069657   -796.60797            0    -796.6078    14129.736 
     181  0.012067732   -796.60802            0   -796.60782    14129.587 
     182  0.013511905   -796.60806            0   -796.60784    14129.428 
     183   0.01502686   -796.60811            0   -796.60786     14129.26 
     184  0.016610254   -796.60816            0   -796.60788    14129.083 
     185  0.018259637   -796.60821            0   -796.60791    14128.898 
     186  0.019972453   -796.60826            0   -796.60794    14128.703 
     187  0.021746049   -796.60832            0   -796.60796    14128.499 
     188  0.023577671   -796.60838            0   -796.60799    14128.287 
     189  0.025464475   -796.60844            0   -796.60803    14128.065 
     190  0.027403514   -796.60851            0   -796.60806    14127.835 
     191  0.029391795   -796.60857            0    -796.6081    14127.597 
     192  0.031426234   -796.60865            0   -796.60813     14127.35 
     193  0.033503684   -796.60872            0   -796.60817    14127.094 
     194  0.035620955    -796.6088            0   -796.60822     14126.83 
     195  0.037774753   -796.60887            0   -796.60826    14126.559 
     196   0.03996172   -796.60896            0   -796.60831    14126.279 
     197  0.042178484   -796.60904            0   -796.60835    14125.991 
     198  0.044421578   -796.60913            0   -796.60841    14125.696 
     199  0.046687659   -796.60922            0   -796.60846    14125.394 
     200  0.048973134   -796.60931            0   -796.60852    14125.084 
     201  0.051274687   -796.60941            0   -796.60858    14124.768 
     202  0.053588412   -796.60951            0   -796.60864    14124.443 
     203  0.055911077   -796.60961            0    -796.6087    14124.115 
     204  0.058236728   -796.60972            0   -796.60877     14123.77 
     205  0.060543009   -796.60983            0   -796.60884    14123.452 
     206  0.062628077   -796.60994            0   -796.60892    14123.021 
     207  0.061999291   -796.61005            0   -796.60904    14122.917 
     208  0.038311507   -796.61014            0   -796.60951    14121.578 
     209 0.0015458432   -796.61015            0   -796.61013    14121.346 
     210 0.0023827151   -796.61017            0   -796.61013    14121.478 
     211  0.002883805   -796.61019            0   -796.61015    14121.446 
     212 0.0033815772   -796.61022            0   -796.61016    14121.372 
     213  0.003919345   -796.61025            0   -796.61018    14121.291 
     214 0.0044939302   -796.61028            0    -796.6102    14121.203 
     215  0.005104443   -796.61031            0   -796.61023    14121.109 
     216 0.0057499602   -796.61034            0   -796.61025    14121.009 
     217 0.0064295367   -796.61038            0   -796.61028    14120.904 
     218 0.0071421812   -796.61042            0    -796.6103    14120.792 
     219 0.0078868424   -796.61046            0   -796.61033    14120.675 
     220 0.0086624246    -796.6105            0   -796.61036    14120.552 
     221 0.0094677852   -796.61055            0   -796.61039    14120.424 
     222  0.010301722   -796.61059            0   -796.61043    14120.289 
     223  0.011163022   -796.61064            0   -796.61046     14120.15 
     224  0.012050404    -796.6107            0    -796.6105    14120.005 
     225  0.012962565   -796.61075            0   -796.61054    14119.855 
     226  0.013898149   -796.61081            0   -796.61058    14119.699 
     227  0.014855781   -796.61086            0   -796.61062    14119.539 
     228  0.015834038   -796.61093            0   -796.61067    14119.374 
     229  0.016831483   -796.61099            0   -796.61071    14119.204 
     230  0.017846629   -796.61105            0   -796.61076     14119.03 
     231  0.018877997   -796.61112            0   -796.61081    14118.851 
     232  0.019924029   -796.61119            0   -796.61087    14118.667 
     233  0.020983244   -796.61126            0   -796.61092     14118.48 
     234  0.022053942   -796.61134            0   -796.61098    14118.289 
     235   0.02313486   -796.61141            0   -796.61104    14118.093 
     236  0.024223655   -796.61149            0    -796.6111    14117.896 
     237  0.025320688   -796.61158            0   -796.61116    14117.687 
     238  0.026419113   -796.61166            0   -796.61123    14117.499 
     239  0.027534746   -796.61175            0    -796.6113    14117.238 
     240  0.028633309   -796.61184            0   -796.61137    14117.194 
     241  0.030065878   -796.61193            0   -796.61144    14116.418 
     242  0.033368295   -796.61201            0   -796.61147    14118.171 
     243  0.038422282   -796.61207            0   -796.61144    14113.866 
     244  0.001395522   -796.61208            0   -796.61205    14114.181 
     245 0.0014576658   -796.61209            0   -796.61206    14114.983 
     246  0.001174216    -796.6121            0   -796.61208     14115.58 
     247 0.00092244778   -796.61211            0    -796.6121    14115.868 
     248 0.00097297906   -796.61213            0   -796.61211    14115.946 
     249 0.0011568639   -796.61215            0   -796.61213    14115.934 
     250 0.0013752613   -796.61217            0   -796.61214    14115.896 
     251 0.0016123609   -796.61219            0   -796.61216    14115.851 
     252 0.0018670637   -796.61221            0   -796.61218    14115.801 
     253 0.0021390766   -796.61223            0    -796.6122    14115.748 
     254 0.0024280254   -796.61226            0   -796.61222    14115.691 
     255 0.0027335038   -796.61229            0   -796.61224     14115.63 
     256  0.003055081   -796.61232            0   -796.61227    14115.566 
     257 0.0033923021   -796.61235            0   -796.61229    14115.499 
     258  0.003744693   -796.61238            0   -796.61232    14115.428 
     259 0.0041117487   -796.61242            0   -796.61235    14115.353 
     260 0.0044929493   -796.61245            0   -796.61238    14115.276 
     261 0.0048877509   -796.61249            0   -796.61241    14115.195 
     262 0.0052955909   -796.61253            0   -796.61245    14115.111 
     263 0.0057158865   -796.61257            0   -796.61248    14115.024 
     264 0.0061480371   -796.61262            0   -796.61252    14114.935 
     265 0.0065914242   -796.61266            0   -796.61256    14114.842 
     266 0.0070454129   -796.61271            0    -796.6126    14114.746 
     267 0.0075093523   -796.61276            0   -796.61264    14114.648 
     268 0.0079825772   -796.61281            0   -796.61268    14114.547 
     269 0.0084644078   -796.61286            0   -796.61273    14114.444 
     270 0.0089541529   -796.61292            0   -796.61277    14114.338 
     271 0.0094511067   -796.61298            0   -796.61282     14114.23 
     272 0.0099545573   -796.61303            0   -796.61287     14114.12 
     273  0.010463757   -796.61309            0   -796.61292    14114.008 
     274  0.010977979   -796.61316            0   -796.61298    14113.894 
     275  0.011496485   -796.61322            0   -796.61303    14113.778 
     276  0.012018557   -796.61329            0   -796.61309     14113.66 
     277  0.012543405   -796.61335            0   -796.61315     14113.54 
     278   0.01307045   -796.61342            0   -796.61321    14113.423 
     279  0.013600165   -796.61349            0   -796.61327     14113.29 
     280  0.014144726   -796.61357            0   -796.61334    14113.202 
     281  0.014876595   -796.61364            0    -796.6134    14112.962 
     282  0.017825617   -796.61371            0   -796.61342      14113.3 
     283  0.028190033   -796.61376            0    -796.6133    14112.332 
     284 0.0010591101   -796.61377            0   -796.61375    14112.156 
     285 0.0011119352   -796.61378            0   -796.61376    14112.346 
     286 0.00084618631   -796.61379            0   -796.61377    14112.491 
     287 0.00052380785    -796.6138            0   -796.61379    14112.559 
     288 0.00045956309   -796.61381            0    -796.6138    14112.571 
     289 0.00052949233   -796.61382            0   -796.61381    14112.559 
     290 0.00062838389   -796.61384            0   -796.61383    14112.537 
     291 0.00073704456   -796.61385            0   -796.61384    14112.512 
     292 0.00085389713   -796.61387            0   -796.61386    14112.485 
     293 0.00097874467   -796.61389            0   -796.61388    14112.456 
     294 0.0011114148   -796.61391            0   -796.61389    14112.425 
     295 0.0012517254   -796.61393            0   -796.61391    14112.392 
     296 0.0013994833   -796.61396            0   -796.61393    14112.357 
     297 0.0015544845   -796.61398            0   -796.61396    14112.321 
     298 0.0017165146   -796.61401            0   -796.61398    14112.282 
     299 0.0018853487   -796.61404            0   -796.61401    14112.242 
     300 0.0020607521   -796.61406            0   -796.61403      14112.2 
     301 0.0022424804    -796.6141            0   -796.61406    14112.156 
     302 0.0024302799   -796.61413            0   -796.61409    14112.111 
     303 0.0026238881   -796.61416            0   -796.61412    14112.065 
     304 0.0028230336   -796.61419            0   -796.61415    14112.017 
     305 0.0030274372   -796.61423            0   -796.61418    14111.967 
     306 0.0032368115   -796.61427            0   -796.61421    14111.916 
     307  0.003450863   -796.61431            0   -796.61425    14111.864 
     308 0.0036692885   -796.61435            0   -796.61429     14111.81 
     309 0.0038917794   -796.61439            0   -796.61432    14111.756 
     310  0.004118021   -796.61443            0   -796.61436      14111.7 
     311 0.0043476936   -796.61447            0    -796.6144    14111.643 
     312 0.0045804716   -796.61452            0   -796.61444    14111.585 
     313 0.0048160241   -796.61457            0   -796.61449    14111.527 
     314 0.0050540159   -796.61461            0   -796.61453    14111.468 
     315 0.0052941058   -796.61466            0   -796.61458    14111.407 
     316 0.0055359539   -796.61472            0   -796.61463    14111.347 
     317  0.005779206   -796.61477            0   -796.61467    14111.286 
     318  0.006023535   -796.61482            0   -796.61472    14111.224 
     319 0.0062684979   -796.61488            0   -796.61478    14111.162 
     320 0.0065138764   -796.61493            0   -796.61483    14111.098 
     321 0.0067568799   -796.61499            0   -796.61488    14111.044 
     322 0.0069808139   -796.61505            0   -796.61494    14110.951 
     323 0.0068960693   -796.61511            0     -796.615    14111.003 
     324 0.0039957435   -796.61515            0   -796.61509    14110.606 
     325 5.2640681e-05   -796.61516            0   -796.61516    14110.605 
     326 7.6948087e-05   -796.61516            0   -796.61516    14110.661 
     327 0.0001065734   -796.61517            0   -796.61516    14110.709 
     328 0.00013918244   -796.61517            0   -796.61517    14110.737 
     329 0.00017366252   -796.61518            0   -796.61518    14110.744 
     330 0.00021236854   -796.61519            0   -796.61519    14110.738 
     331 0.00025522954    -796.6152            0    -796.6152    14110.729 
     332 0.0003018962   -796.61522            0   -796.61521    14110.717 
     333 0.00035226773   -796.61523            0   -796.61522    14110.705 
     334 0.00040627977   -796.61524            0   -796.61524    14110.692 
     335 0.00046386066   -796.61526            0   -796.61525    14110.678 
     336 0.0005249328   -796.61527            0   -796.61527    14110.663 
     337 0.00058941358   -796.61529            0   -796.61528    14110.647 
     338 0.00065721548   -796.61531            0    -796.6153    14110.631 
     339 0.00072824619   -796.61533            0   -796.61532    14110.613 
     340 0.0008024087   -796.61535            0   -796.61534    14110.595 
     341 0.00087960146   -796.61537            0   -796.61536    14110.576 
     342 0.00095971852   -796.61539            0   -796.61538    14110.557 
     343 0.0010426499   -796.61542            0    -796.6154    14110.536 
     344  0.001128281   -796.61544            0   -796.61542    14110.515 
     345  0.001216494   -796.61547            0   -796.61545    14110.494 
     346 0.0013071661   -796.61549            0   -796.61547    14110.472 
     347 0.0014001715   -796.61552            0    -796.6155    14110.449 
     348 0.0014953809   -796.61555            0   -796.61553    14110.426 
     349 0.0015926614   -796.61558            0   -796.61556    14110.403 
     350 0.0016918772   -796.61561            0   -796.61559    14110.379 
     351 0.0017928892   -796.61564            0   -796.61562    14110.355 
     352 0.0018955558   -796.61568            0   -796.61565     14110.33 
     353 0.0019997327   -796.61571            0   -796.61568    14110.306 
     354 0.0021052728   -796.61575            0   -796.61571    14110.281 
     355 0.0022120264   -796.61578            0   -796.61575    14110.256 
     356 0.0023198433   -796.61582            0   -796.61578    14110.231 
     357 0.0024285669   -796.61586            0   -796.61582    14110.206 
     358 0.0025380501    -796.6159            0   -796.61586     14110.18 
     359 0.0026481097   -796.61594            0    -796.6159    14110.156 
     360   0.00275865   -796.61598            0   -796.61594     14110.13 
     361  0.002869123   -796.61602            0   -796.61598    14110.106 
     362 0.0029785612   -796.61607            0   -796.61602    14110.078 
     363 0.0030631102   -796.61611            0   -796.61606    14110.066 
     364 0.0028716882   -796.61616            0   -796.61611    14109.995 
     365 0.00097513677   -796.61618            0   -796.61616    14110.047 
     366 9.5365432e-06   -796.61618            0   -796.61618    14110.024 
     367 1.6423879e-05   -796.61618            0   -796.61618    14110.011 
     368 2.6614641e-05   -796.61619            0   -796.61619    14109.997 
     369 4.0344589e-05   -796.61619            0   -796.61619    14109.985 
     370 5.5946586e-05    -796.6162            0    -796.6162    14109.976 
     371 7.2232473e-05    -796.6162            0    -796.6162     14109.97 
     372 8.9732405e-05   -796.61621            0   -796.61621    14109.965 
     373 0.00010892322   -796.61622            0   -796.61622    14109.961 
     374 0.00012989607   -796.61623            0   -796.61622    14109.957 
     375 0.0001526306   -796.61624            0   -796.61623    14109.953 
     376 0.0001770946   -796.61625            0   -796.61624    14109.948 
     377  0.000203255   -796.61626            0   -796.61626    14109.943 
     378 0.00023107692   -796.61627            0   -796.61627    14109.937 
     379 0.00026052314   -796.61628            0   -796.61628    14109.932 
     380 0.00029155411    -796.6163            0   -796.61629    14109.926 
     381 0.00032412801   -796.61631            0   -796.61631     14109.92 
     382 0.0003582008   -796.61633            0   -796.61632    14109.913 
     383 0.00039372624   -796.61634            0   -796.61634    14109.907 
     384  0.000430656   -796.61636            0   -796.61635      14109.9 
     385 0.0004689397   -796.61638            0   -796.61637    14109.893 
     386 0.00050852496    -796.6164            0   -796.61639    14109.886 
     387 0.00054935747   -796.61642            0   -796.61641    14109.878 
     388 0.00059138108   -796.61644            0   -796.61643    14109.871 
     389 0.00063453785   -796.61646            0   -796.61645    14109.864 
     390 0.00067876811   -796.61648            0   -796.61647    14109.856 
     391 0.00072401054    -796.6165            0   -796.61649    14109.849 
     392 0.00077020222   -796.61653            0   -796.61651    14109.841 
     393 0.00081727875   -796.61655            0   -796.61654    14109.834 
     394 0.0008651744   -796.61657            0   -796.61656    14109.827 
     395 0.00091382199    -796.6166            0   -796.61659     14109.82 
     396 0.00096315298   -796.61663            0   -796.61661    14109.813 
     397 0.0010130977   -796.61665            0   -796.61664    14109.806 
     398 0.0010635854   -796.61668            0   -796.61667    14109.799 
     399 0.0011145442   -796.61671            0   -796.61669    14109.793 
     400 0.0011659011   -796.61674            0   -796.61672    14109.787 
     401 0.0012175828   -796.61677            0   -796.61675    14109.781 
     402 0.0012695114    -796.6168            0   -796.61678    14109.776 
     403 0.0013216038   -796.61684            0   -796.61681    14109.772 
     404 0.0013736059   -796.61687            0   -796.61685    14109.767 
     405 0.0014236022    -796.6169            0   -796.61688    14109.763 
     406 0.0014458495   -796.61694            0   -796.61691    14109.762 
     407 0.0011446639   -796.61697            0   -796.61695    14109.748 
     408 0.00010867406   -796.61698            0   -796.61698    14109.741 
     409 5.2392976e-05   -796.61698            0   -796.61698    14109.738 
     410 6.3585234e-05   -796.61699            0   -796.61699    14109.738 
     411 7.468865e-05     -796.617            0     -796.617    14109.738 
     412 8.6630106e-05   -796.61701            0   -796.61701    14109.737 
     413 9.9397874e-05   -796.61702            0   -796.61701    14109.737 
     414 0.00011297497   -796.61702            0   -796.61702    14109.737 
     415 0.00012734334   -796.61703            0   -796.61703    14109.737 
     416 0.00014248377   -796.61705            0   -796.61704    14109.737 
     417 0.00015837596   -796.61706            0   -796.61705    14109.737 
     418 0.0001749985   -796.61707            0   -796.61707    14109.737 
     419 0.00019232894   -796.61708            0   -796.61708    14109.737 
     420 0.0002103438   -796.61709            0   -796.61709    14109.737 
     421 0.00022901858   -796.61711            0    -796.6171    14109.737 
     422 0.00024832788   -796.61712            0   -796.61712    14109.738 
     423 0.00026824523   -796.61714            0   -796.61713    14109.739 
     424 0.00028874328   -796.61715            0   -796.61715     14109.74 
     425 0.00030979377   -796.61717            0   -796.61717    14109.741 
     426 0.00033136762   -796.61719            0   -796.61718    14109.742 
     427 0.00035343499    -796.6172            0    -796.6172    14109.743 
     428 0.00037596519   -796.61722            0   -796.61722    14109.745 
     429 0.00039892681   -796.61724            0   -796.61724    14109.747 
     430 0.00042228767   -796.61726            0   -796.61725    14109.749 
     431 0.00044601499   -796.61728            0   -796.61727    14109.752 
     432 0.00047007522    -796.6173            0   -796.61729    14109.755 
     433 0.00049443439   -796.61732            0   -796.61732    14109.759 
     434 0.0005190574   -796.61735            0   -796.61734    14109.762 
     435 0.00054391011   -796.61737            0   -796.61736    14109.767 
     436 0.00056895301   -796.61739            0   -796.61738    14109.771 
     437 0.00059415436   -796.61742            0   -796.61741    14109.776 
     438 0.00061940116   -796.61744            0   -796.61743    14109.782 
     439 0.00064425325   -796.61746            0   -796.61745    14109.788 
     440 0.00066263131   -796.61749            0   -796.61748    14109.796 
     441 0.00061003442   -796.61752            0   -796.61751    14109.797 
     442 0.00019007304   -796.61753            0   -796.61753    14109.806 
     443 3.7004272e-06   -796.61753            0   -796.61753    14109.802 
     444 6.4370513e-06   -796.61753            0   -796.61753    14109.801 
     445 1.0429283e-05   -796.61754            0   -796.61754      14109.8 
     446 1.4861222e-05   -796.61754            0   -796.61754    14109.801 
     447 1.9179182e-05   -796.61754            0   -796.61754    14109.802 
     448 2.3691538e-05   -796.61755            0   -796.61755    14109.803 
     449 2.8611732e-05   -796.61755            0   -796.61755    14109.805 
     450 3.3974253e-05   -796.61756            0   -796.61756    14109.806 
     451 3.9774673e-05   -796.61756            0   -796.61756    14109.808 
     452 4.6005243e-05   -796.61757            0   -796.61757    14109.811 
     453 5.2657729e-05   -796.61758            0   -796.61758    14109.813 
     454 5.972333e-05   -796.61759            0   -796.61758    14109.816 
     455 6.7192656e-05   -796.61759            0   -796.61759    14109.818 
     456 7.5055735e-05    -796.6176            0    -796.6176    14109.821 
     457 8.3302029e-05   -796.61761            0   -796.61761    14109.825 
     458 9.1920443e-05   -796.61762            0   -796.61762    14109.828 
     459 0.00010089934   -796.61763            0   -796.61763    14109.832 
     460 0.00011022656   -796.61764            0   -796.61764    14109.836 
     461 0.0001198894   -796.61765            0   -796.61765     14109.84 
     462 0.0001298747   -796.61766            0   -796.61766    14109.845 
     463 0.00014016876   -796.61768            0   -796.61767     14109.85 
     464 0.00015075746   -796.61769            0   -796.61769    14109.855 
     465 0.00016162618    -796.6177            0    -796.6177    14109.861 
     466 0.0001727599   -796.61772            0   -796.61771    14109.866 
     467 0.00018414313   -796.61773            0   -796.61773    14109.873 
     468 0.00019576003   -796.61774            0   -796.61774    14109.879 
     469 0.00020759431   -796.61776            0   -796.61776    14109.886 
     470 0.00021962935   -796.61777            0   -796.61777    14109.893 
     471 0.00023184816   -796.61779            0   -796.61779    14109.901 
     472 0.0002442334   -796.61781            0    -796.6178    14109.909 
     473 0.00025676741   -796.61782            0   -796.61782    14109.918 
     474 0.00026943225   -796.61784            0   -796.61784    14109.927 
     475 0.00028220959   -796.61786            0   -796.61786    14109.937 
     476 0.00029508099   -796.61788            0   -796.61787    14109.947 
     477 0.00030802599    -796.6179            0   -796.61789    14109.958 
     478 0.00032101707   -796.61792            0   -796.61791    14109.969 
     479 0.00033391298   -796.61794            0   -796.61793    14109.981 
     480 0.00034531546   -796.61796            0   -796.61795    14109.993 
     481 0.00033739237   -796.61798            0   -796.61797    14110.007 
     482 0.00017252576   -796.61799            0   -796.61799    14110.008 
     483 3.0401559e-06   -796.61799            0   -796.61799    14110.009 
     484 5.6996488e-06     -796.618            0     -796.618    14110.012 
     485 9.1803545e-06     -796.618            0     -796.618    14110.015 
     486 1.1938569e-05     -796.618            0     -796.618    14110.017 
     487 1.4490115e-05   -796.61801            0   -796.61801     14110.02 
     488 1.7233233e-05   -796.61801            0   -796.61801    14110.023 
     489 2.0201395e-05   -796.61802            0   -796.61802    14110.026 
     490 2.339167e-05   -796.61802            0   -796.61802    14110.029 
     491 2.6799887e-05   -796.61803            0   -796.61803    14110.033 
     492 3.0421543e-05   -796.61803            0   -796.61803    14110.037 
     493 3.4251831e-05   -796.61804            0   -796.61804    14110.042 
     494 3.8285642e-05   -796.61805            0   -796.61805    14110.046 
     495 4.2517574e-05   -796.61805            0   -796.61805    14110.051 
     496 4.6941935e-05   -796.61806            0   -796.61806    14110.057 
     497 5.1552753e-05   -796.61807            0   -796.61807    14110.062 
     498 5.6343777e-05   -796.61808            0   -796.61808    14110.068 
     499 6.130849e-05   -796.61809            0   -796.61808    14110.074 
     500 6.6440114e-05   -796.61809            0   -796.61809    14110.081 
     501 7.1731616e-05    -796.6181            0    -796.6181    14110.088 
     502 7.7175716e-05   -796.61811            0   -796.61811    14110.095 
     503 8.2764895e-05   -796.61812            0   -796.61812    14110.103 
     504 8.8491407e-05   -796.61814            0   -796.61813    14110.111 
     505 9.4347279e-05   -796.61815            0   -796.61814     14110.12 
     506 0.00010032433   -796.61816            0   -796.61816    14110.129 
     507 0.00010641416   -796.61817            0   -796.61817    14110.138 
     508 0.00011260819   -796.61818            0   -796.61818    14110.148 
     509 0.00011889764   -796.61819            0   -796.61819    14110.158 
     510 0.00012527356   -796.61821            0   -796.61821    14110.169 
     511 0.00013172682   -796.61822            0   -796.61822     14110.18 
     512 0.00013824811   -796.61824            0   -796.61823    14110.191 
     513 0.00014482805   -796.61825            0   -796.61825    14110.203 
     514 0.00015145684   -796.61826            0   -796.61826    14110.216 
     515 0.00015812528   -796.61828            0   -796.61828    14110.229 
     516 0.00016482001   -796.61829            0   -796.61829    14110.243 
     517 0.00017152289   -796.61831            0   -796.61831    14110.257 
     518 0.00017799249   -796.61833            0   -796.61832    14110.273 
     519 0.00018147397   -796.61834            0   -796.61834    14110.283 
     520 0.00014607414   -796.61836            0   -796.61836    14110.316 
     521  1.46362e-05   -796.61836            0   -796.61836    14110.298 
     522 6.0797429e-06   -796.61836            0   -796.61836    14110.305 
     523 7.5021058e-06   -796.61837            0   -796.61837    14110.309 
     524 8.9309356e-06   -796.61837            0   -796.61837    14110.312 
     525 1.0476195e-05   -796.61838            0   -796.61838    14110.316 
     526 1.2137592e-05   -796.61838            0   -796.61838     14110.32 
     527 1.3913008e-05   -796.61838            0   -796.61838    14110.324 
     528 1.580009e-05   -796.61839            0   -796.61839    14110.329 
     529 1.7796337e-05   -796.61839            0   -796.61839    14110.334 
     530 1.9899086e-05    -796.6184            0    -796.6184    14110.339 
     531 2.2105521e-05    -796.6184            0    -796.6184    14110.345 
     532 2.4412674e-05   -796.61841            0   -796.61841    14110.351 
     533 2.6817429e-05   -796.61842            0   -796.61842    14110.357 
     534 2.9316526e-05   -796.61842            0   -796.61842    14110.364 
     535 3.1906565e-05   -796.61843            0   -796.61843    14110.371 
     536 3.4584005e-05   -796.61844            0   -796.61844    14110.378 
     537 3.7345175e-05   -796.61845            0   -796.61845    14110.386 
     538 4.0186272e-05   -796.61845            0   -796.61845    14110.394 
     539 4.3103371e-05   -796.61846            0   -796.61846    14110.403 
     540 4.609242e-05   -796.61847            0   -796.61847    14110.412 
     541 4.9149257e-05   -796.61848            0   -796.61848    14110.421 
     542  5.22696e-05   -796.61849            0   -796.61849    14110.431 
     543 5.544907e-05    -796.6185            0    -796.6185    14110.441 
     544 5.8683161e-05   -796.61851            0   -796.61851    14110.452 
     545 6.196732e-05   -796.61852            0   -796.61852    14110.463 
     546 6.5296779e-05   -796.61853            0   -796.61853    14110.474 
     547 6.8666981e-05   -796.61854            0   -796.61854    14110.486 
     548 7.2072449e-05   -796.61855            0   -796.61855    14110.499 
     549 7.5509805e-05   -796.61856            0   -796.61856    14110.512 
     550 7.8967069e-05   -796.61857            0   -796.61857    14110.525 
     551 8.243936e-05   -796.61859            0   -796.61858    14110.538 
     552 8.5673382e-05    -796.6186            0    -796.6186    14110.557 
     553 8.6583389e-05   -796.61861            0   -796.61861    14110.556 
     554 6.2691599e-05   -796.61862            0   -796.61862    14110.612 
     555 5.1692019e-06   -796.61862            0   -796.61862    14110.587 
     556 5.4549786e-06   -796.61863            0   -796.61863    14110.585 
     557 6.2379528e-06   -796.61863            0   -796.61863    14110.589 
     558 7.2100084e-06   -796.61863            0   -796.61863    14110.593 
     559 8.2476864e-06   -796.61864            0   -796.61864    14110.598 
     560 9.3501008e-06   -796.61864            0   -796.61864    14110.603 
     561 1.0515053e-05   -796.61864            0   -796.61864    14110.608 
     562 1.174128e-05   -796.61865            0   -796.61865    14110.613 
     563 1.3026963e-05   -796.61865            0   -796.61865    14110.619 
     564 1.4370499e-05   -796.61866            0   -796.61866    14110.625 
     565 1.5769968e-05   -796.61866            0   -796.61866    14110.632 
     566 1.7223577e-05   -796.61867            0   -796.61867    14110.639 
     567 1.8729233e-05   -796.61867            0   -796.61867    14110.646 
     568 2.0285023e-05   -796.61868            0   -796.61868    14110.654 
     569 2.1888619e-05   -796.61869            0   -796.61869    14110.662 
     570 2.3538104e-05   -796.61869            0   -796.61869     14110.67 
     571 2.5230726e-05    -796.6187            0    -796.6187    14110.679 
     572 2.6964958e-05   -796.61871            0   -796.61871    14110.688 
     573 2.873679e-05   -796.61872            0   -796.61871    14110.698 
     574 3.0546761e-05   -796.61872            0   -796.61872    14110.707 
     575 3.2384844e-05   -796.61873            0   -796.61873    14110.718 
     576 3.4260397e-05   -796.61874            0   -796.61874    14110.727 
     577 3.6111024e-05   -796.61875            0   -796.61875    14110.742 
     578 3.7888496e-05   -796.61876            0   -796.61876    14110.745 
     579 3.8326364e-05   -796.61876            0   -796.61876    14110.779 
     580 3.1731867e-05   -796.61877            0   -796.61877    14110.737 
     581 8.6577136e-06   -796.61877            0   -796.61877    14110.783 
     582 3.6864919e-06   -796.61878            0   -796.61878    14110.778 
     583 4.0702952e-06   -796.61878            0   -796.61878    14110.783 
     584 4.7192619e-06   -796.61878            0   -796.61878    14110.786 
     585 5.4134986e-06   -796.61879            0   -796.61879    14110.791 
     586 6.1523632e-06   -796.61879            0   -796.61879    14110.796 
     587 6.9340668e-06   -796.61879            0   -796.61879    14110.801 
     588 7.757887e-06    -796.6188            0    -796.6188    14110.806 
     589 8.6225346e-06    -796.6188            0    -796.6188    14110.812 
     590 9.526987e-06   -796.61881            0   -796.61881    14110.818 
     591 1.0469912e-05   -796.61881            0   -796.61881    14110.824 
     592 1.1450151e-05   -796.61881            0   -796.61881    14110.831 
     593 1.2466248e-05   -796.61882            0   -796.61882    14110.838 
     594 1.351698e-05   -796.61883            0   -796.61882    14110.845 
     595 1.4600697e-05   -796.61883            0   -796.61883    14110.853 
     596 1.5716236e-05   -796.61884            0   -796.61884    14110.861 
     597 1.6861541e-05   -796.61884            0   -796.61884    14110.869 
     598 1.8035947e-05   -796.61885            0   -796.61885    14110.878 
     599 1.9236075e-05   -796.61885            0   -796.61885    14110.887 
     600 2.0463749e-05   -796.61886            0   -796.61886    14110.897 
     601 2.1709358e-05   -796.61887            0   -796.61887    14110.907 
     602 2.2987871e-05   -796.61888            0   -796.61887    14110.916 
     603 2.4248613e-05   -796.61888            0   -796.61888    14110.931 
     604 2.5570598e-05   -796.61889            0   -796.61889     14110.93 
     605 2.6401055e-05    -796.6189            0    -796.6189    14110.972 
     606 2.3508516e-05    -796.6189            0    -796.6189    14110.917 
     607 5.5688037e-06    -796.6189            0    -796.6189    14110.959 
     608 2.357894e-06   -796.61891            0   -796.61891    14110.964 
     609 2.7691554e-06   -796.61891            0   -796.61891    14110.967 
     610 3.215102e-06   -796.61891            0   -796.61891    14110.971 
     611 3.6925276e-06   -796.61891            0   -796.61891    14110.975 
     612 4.2004161e-06   -796.61892            0   -796.61892     14110.98 
     613 4.7382049e-06   -796.61892            0   -796.61892    14110.985 
     614 5.305133e-06   -796.61892            0   -796.61892     14110.99 
     615 5.9004781e-06   -796.61893            0   -796.61893    14110.995 
     616 6.5234245e-06   -796.61893            0   -796.61893    14111.001 
     617 7.1731586e-06   -796.61894            0   -796.61894    14111.007 
     618 7.8487885e-06   -796.61894            0   -796.61894    14111.013 
     619 8.5494265e-06   -796.61894            0   -796.61894     14111.02 
     620 9.2740974e-06   -796.61895            0   -796.61895    14111.027 
     621 1.0021858e-05   -796.61895            0   -796.61895    14111.035 
     622 1.0791631e-05   -796.61896            0   -796.61896    14111.042 
     623 1.1582467e-05   -796.61896            0   -796.61896    14111.051 
     624  1.23931e-05   -796.61897            0   -796.61897    14111.059 
     625 1.3222771e-05   -796.61898            0   -796.61897    14111.068 
     626  1.40696e-05   -796.61898            0   -796.61898    14111.077 
     627 1.4934041e-05   -796.61899            0   -796.61899    14111.086 
     628 1.5811032e-05   -796.61899            0   -796.61899    14111.096 
     629 1.670889e-05     -796.619            0     -796.619    14111.105 
     630 1.7600982e-05   -796.61901            0   -796.61901    14111.119 
     631 1.856009e-05   -796.61901            0   -796.61901    14111.121 
     632 1.9397074e-05   -796.61902            0   -796.61902    14111.158 
     633 1.860482e-05   -796.61902            0   -796.61902    14111.108 
     634 3.9088065e-06   -796.61903            0   -796.61903    14111.145 
     635 1.5485123e-06   -796.61903            0   -796.61903    14111.152 
     636 1.7746975e-06   -796.61903            0   -796.61903    14111.155 
     637 2.0688507e-06   -796.61903            0   -796.61903    14111.159 
     638 2.3852858e-06   -796.61903            0   -796.61903    14111.163 
     639 2.7224815e-06   -796.61904            0   -796.61904    14111.167 
     640 3.0802004e-06   -796.61904            0   -796.61904    14111.171 
     641 3.4578759e-06   -796.61904            0   -796.61904    14111.176 
     642 3.8550686e-06   -796.61905            0   -796.61905    14111.181 
     643 4.2712124e-06   -796.61905            0   -796.61905    14111.187 
     644 4.7057923e-06   -796.61905            0   -796.61905    14111.192 
     645 5.1581946e-06   -796.61906            0   -796.61906    14111.198 
     646 5.6278574e-06   -796.61906            0   -796.61906    14111.205 
     647 6.1141004e-06   -796.61906            0   -796.61906    14111.211 
     648 6.6163449e-06   -796.61907            0   -796.61907    14111.218 
     649 7.1338028e-06   -796.61907            0   -796.61907    14111.225 
     650 7.6659645e-06   -796.61908            0   -796.61908    14111.233 
     651 8.2117698e-06   -796.61908            0   -796.61908    14111.241 
     652 8.7711386e-06   -796.61909            0   -796.61909    14111.249 
     653 9.3419274e-06   -796.61909            0   -796.61909    14111.257 
     654 9.9263991e-06    -796.6191            0    -796.6191    14111.266 
     655 1.0516432e-05    -796.6191            0    -796.6191    14111.276 
     656 1.1129247e-05   -796.61911            0   -796.61911    14111.283 
     657 1.1716598e-05   -796.61911            0   -796.61911      14111.3 
     658 1.2405947e-05   -796.61912            0   -796.61912    14111.289 
     659 1.1855603e-05   -796.61912            0   -796.61912    14111.342 
     660 3.4679225e-06   -796.61912            0   -796.61912    14111.312 
     661 1.0877697e-06   -796.61913            0   -796.61913    14111.318 
     662 1.2686649e-06   -796.61913            0   -796.61913     14111.32 
     663 1.4772644e-06   -796.61913            0   -796.61913    14111.324 
     664 1.7014412e-06   -796.61913            0   -796.61913    14111.328 
     665 1.9401991e-06   -796.61913            0   -796.61913    14111.332 
     666 2.1933946e-06   -796.61914            0   -796.61914    14111.336 
     667 2.4606116e-06   -796.61914            0   -796.61914     14111.34 
     668 2.7415578e-06   -796.61914            0   -796.61914    14111.345 
     669 3.0358228e-06   -796.61914            0   -796.61914     14111.35 
     670 3.3430609e-06   -796.61915            0   -796.61915    14111.356 
     671 3.6628264e-06   -796.61915            0   -796.61915    14111.361 
     672 3.9947479e-06   -796.61915            0   -796.61915    14111.367 
     673 4.3383205e-06   -796.61916            0   -796.61916    14111.373 
     674 4.6931861e-06   -796.61916            0   -796.61916     14111.38 
     675 5.0587185e-06   -796.61917            0   -796.61917    14111.387 
     676 5.4346996e-06   -796.61917            0   -796.61917    14111.394 
     677 5.8201229e-06   -796.61917            0   -796.61917    14111.401 
     678 6.2154767e-06   -796.61918            0   -796.61918    14111.409 
     679 6.6180197e-06   -796.61918            0   -796.61918    14111.417 
     680 7.0320396e-06   -796.61919            0   -796.61919    14111.424 
     681 7.4439439e-06   -796.61919            0   -796.61919    14111.435 
     682 7.8796976e-06    -796.6192            0    -796.6192    14111.438 
     683 8.2161984e-06    -796.6192            0    -796.6192    14111.462 
     684 7.9495833e-06   -796.61921            0    -796.6192    14111.436 
     685 2.6525583e-06   -796.61921            0   -796.61921    14111.466 
     686 7.9324566e-07   -796.61921            0   -796.61921    14111.463 
     687 8.5203672e-07   -796.61921            0   -796.61921    14111.467 
     688 9.974918e-07   -796.61921            0   -796.61921     14111.47 
     689 1.1538964e-06   -796.61921            0   -796.61921    14111.473 
     690 1.3211235e-06   -796.61921            0   -796.61921    14111.477 
     691 1.498729e-06   -796.61922            0   -796.61922    14111.481 
     692 1.6865803e-06   -796.61922            0   -796.61922    14111.485 
     693 1.8843769e-06   -796.61922            0   -796.61922    14111.489 
     694 2.0919091e-06   -796.61922            0   -796.61922    14111.494 
     695 2.3088685e-06   -796.61923            0   -796.61923    14111.499 
     696 2.5350162e-06   -796.61923            0   -796.61923    14111.504 
     697 2.7700098e-06   -796.61923            0   -796.61923    14111.509 
     698 3.0136076e-06   -796.61924            0   -796.61924    14111.515 
     699 3.2653993e-06   -796.61924            0   -796.61924    14111.521 
     700 3.525203e-06   -796.61924            0   -796.61924    14111.527 
     701 3.7924245e-06   -796.61925            0   -796.61925    14111.533 
     702 4.0671813e-06   -796.61925            0   -796.61925     14111.54 
     703 4.3481536e-06   -796.61925            0   -796.61925    14111.547 
     704 4.6369266e-06   -796.61926            0   -796.61926    14111.554 
     705 4.9281296e-06   -796.61926            0   -796.61926    14111.563 
     706 5.2306177e-06   -796.61926            0   -796.61926    14111.568 
     707 5.5020947e-06   -796.61927            0   -796.61927    14111.582 
     708 5.7110085e-06   -796.61927            0   -796.61927    14111.575 
     709 4.5758293e-06   -796.61928            0   -796.61928    14111.609 
     710 9.5977311e-07   -796.61928            0   -796.61928    14111.595 
     711 5.0835368e-07   -796.61928            0   -796.61928    14111.596 
     712 5.9203138e-07   -796.61928            0   -796.61928    14111.598 
     713 6.9608105e-07   -796.61928            0   -796.61928    14111.601 
     714 8.0802283e-07   -796.61928            0   -796.61928    14111.604 
     715 9.2782644e-07   -796.61928            0   -796.61928    14111.607 
     716 1.0552923e-06   -796.61929            0   -796.61929    14111.611 
     717 1.1902813e-06   -796.61929            0   -796.61929    14111.615 
     718 1.3326102e-06   -796.61929            0   -796.61929    14111.619 
     719 1.4821083e-06   -796.61929            0   -796.61929    14111.623 
     720 1.6385775e-06   -796.61929            0   -796.61929    14111.627 
     721 1.8018271e-06    -796.6193            0    -796.6193    14111.632 
     722 1.9716388e-06    -796.6193            0    -796.6193    14111.637 
     723 2.1478089e-06    -796.6193            0    -796.6193    14111.642 
     724 2.3300923e-06    -796.6193            0    -796.6193    14111.648 
     725 2.5182862e-06   -796.61931            0   -796.61931    14111.653 
     726 2.7120955e-06   -796.61931            0   -796.61931    14111.659 
     727 2.9113701e-06   -796.61931            0   -796.61931    14111.665 
     728 3.1156529e-06   -796.61932            0   -796.61932    14111.672 
     729 3.3251035e-06   -796.61932            0   -796.61932    14111.679 
     730 3.5384368e-06   -796.61932            0   -796.61932    14111.686 
     731 3.757597e-06   -796.61933            0   -796.61933    14111.692 
     732 3.974866e-06   -796.61933            0   -796.61933    14111.701 
     733 4.198058e-06   -796.61933            0   -796.61933    14111.705 
     734 4.3033476e-06   -796.61934            0   -796.61934    14111.724 
     735 3.6090784e-06   -796.61934            0   -796.61934    14111.705 
     736 6.399381e-07   -796.61934            0   -796.61934     14111.72 
     737 3.5816374e-07   -796.61934            0   -796.61934    14111.725 
     738 4.1112491e-07   -796.61934            0   -796.61934    14111.727 
     739 4.8459447e-07   -796.61935            0   -796.61935    14111.729 
     740 5.6400715e-07   -796.61935            0   -796.61935    14111.732 
     741 6.4905544e-07   -796.61935            0   -796.61935    14111.735 
     742 7.3967372e-07   -796.61935            0   -796.61935    14111.738 
     743 8.3573178e-07   -796.61935            0   -796.61935    14111.742 
     744 9.3712151e-07   -796.61935            0   -796.61935    14111.745 
     745 1.0437088e-06   -796.61936            0   -796.61936    14111.749 
     746 1.1553682e-06   -796.61936            0   -796.61936    14111.753 
     747 1.2719528e-06   -796.61936            0   -796.61936    14111.758 
     748 1.3933256e-06   -796.61936            0   -796.61936    14111.762 
     749 1.5193229e-06   -796.61936            0   -796.61936    14111.767 
     750 1.6498036e-06   -796.61937            0   -796.61937    14111.772 
     751 1.7845767e-06   -796.61937            0   -796.61937    14111.777 
     752 1.9235196e-06   -796.61937            0   -796.61937    14111.782 
     753 2.0663688e-06   -796.61937            0   -796.61937    14111.788 
     754 2.2131211e-06   -796.61938            0   -796.61938    14111.794 
     755 2.3631959e-06   -796.61938            0   -796.61938      14111.8 
     756 2.5172509e-06   -796.61938            0   -796.61938    14111.806 
     757 2.6725933e-06   -796.61939            0   -796.61939    14111.813 
     758 2.8327588e-06   -796.61939            0   -796.61939    14111.818 
     759 2.9664926e-06   -796.61939            0   -796.61939    14111.829 
     760 2.9848826e-06    -796.6194            0    -796.6194    14111.824 
     761 1.8506873e-06    -796.6194            0    -796.6194    14111.847 
     762 2.4517593e-07    -796.6194            0    -796.6194    14111.841 
     763 2.0222338e-07    -796.6194            0    -796.6194     14111.84 
     764 2.2450609e-07    -796.6194            0    -796.6194    14111.841 
     765 2.7079868e-07    -796.6194            0    -796.6194    14111.843 
     766 3.218537e-07    -796.6194            0    -796.6194    14111.846 
     767 3.7711507e-07    -796.6194            0    -796.6194    14111.848 
     768 4.3651899e-07    -796.6194            0    -796.6194    14111.851 
     769 4.999935e-07   -796.61941            0   -796.61941    14111.853 
     770 5.6746213e-07   -796.61941            0   -796.61941    14111.856 
     771 6.3884298e-07   -796.61941            0   -796.61941    14111.859 
     772 7.1404932e-07   -796.61941            0   -796.61941    14111.863 
     773 7.9298943e-07   -796.61941            0   -796.61941    14111.866 
     774 8.7556692e-07   -796.61941            0   -796.61941     14111.87 
     775 9.6168064e-07   -796.61942            0   -796.61942    14111.874 
     776 1.0512251e-06   -796.61942            0   -796.61942    14111.878 
     777 1.1440903e-06   -796.61942            0   -796.61942    14111.883 
     778 1.2401623e-06   -796.61942            0   -796.61942    14111.887 
     779 1.3393226e-06   -796.61942            0   -796.61942    14111.892 
     780 1.4414499e-06   -796.61943            0   -796.61943    14111.897 
     781 1.5464171e-06   -796.61943            0   -796.61943    14111.902 
     782 1.6540977e-06   -796.61943            0   -796.61943    14111.908 
     783 1.7643532e-06   -796.61943            0   -796.61943    14111.913 
     784 1.8770619e-06   -796.61944            0   -796.61944    14111.919 
     785 1.9920488e-06   -796.61944            0   -796.61944    14111.925 
     786 2.1092695e-06   -796.61944            0   -796.61944    14111.931 
     787 2.2282807e-06   -796.61945            0   -796.61945    14111.938 
     788 2.3496768e-06   -796.61945            0   -796.61945    14111.944 
     789 2.4691846e-06   -796.61945            0   -796.61945    14111.952 
     790 2.5809131e-06   -796.61946            0   -796.61946    14111.956 
     791 2.4772177e-06   -796.61946            0   -796.61946    14111.973 
     792 1.0566756e-06   -796.61946            0   -796.61946     14111.96 
     793 5.4554707e-08   -796.61946            0   -796.61946    14111.964 
     794 6.8420512e-08   -796.61946            0   -796.61946    14111.967 
     795 8.2840374e-08   -796.61946            0   -796.61946     14111.97 
     796 1.036235e-07   -796.61946            0   -796.61946    14111.972 
     797 1.2965307e-07   -796.61946            0   -796.61946    14111.973 
     798 1.5893125e-07   -796.61946            0   -796.61946    14111.975 
     799 1.9108958e-07   -796.61946            0   -796.61946    14111.977 
     800 2.2609241e-07   -796.61946            0   -796.61946    14111.979 
     801 2.6390141e-07   -796.61947            0   -796.61947    14111.981 
     802 3.0447214e-07   -796.61947            0   -796.61947    14111.983 
     803 3.4775704e-07   -796.61947            0   -796.61947    14111.986 
     804 3.9370506e-07   -796.61947            0   -796.61947    14111.988 
     805 4.422619e-07   -796.61947            0   -796.61947    14111.991 
     806 4.9336997e-07   -796.61947            0   -796.61947    14111.994 
     807 5.4696857e-07   -796.61947            0   -796.61947    14111.997 
     808 6.0299388e-07   -796.61948            0   -796.61948    14112.001 
     809 6.6137912e-07   -796.61948            0   -796.61948    14112.004 
     810 7.2205456e-07   -796.61948            0   -796.61948    14112.008 
     811 7.8494775e-07   -796.61948            0   -796.61948    14112.012 
     812 8.4998341e-07   -796.61948            0   -796.61948    14112.016 
     813 9.1708386e-07   -796.61948            0   -796.61948    14112.021 
     814 9.8616855e-07   -796.61949            0   -796.61949    14112.025 
     815 1.0571553e-06   -796.61949            0   -796.61949     14112.03 
     816 1.1299581e-06   -796.61949            0   -796.61949    14112.034 
     817 1.2044924e-06   -796.61949            0   -796.61949    14112.039 
     818 1.2806625e-06   -796.61949            0   -796.61949    14112.045 
     819 1.358395e-06    -796.6195            0    -796.6195     14112.05 
     820 1.4375464e-06    -796.6195            0    -796.6195    14112.055 
     821 1.518166e-06    -796.6195            0    -796.6195    14112.061 
     822 1.5996263e-06    -796.6195            0    -796.6195    14112.067 
     823 1.6827349e-06   -796.61951            0   -796.61951    14112.072 
     824 1.7540467e-06   -796.61951            0   -796.61951    14112.081 
     825 1.7314663e-06   -796.61951            0   -796.61951    14112.079 
     826 8.0717835e-07   -796.61951            0   -796.61951    14112.095 
     827 2.0387166e-08   -796.61951            0   -796.61951    14112.094 
     828 2.9947791e-08   -796.61951            0   -796.61951    14112.092 
     829 3.9543052e-08   -796.61952            0   -796.61952    14112.091 
     830 4.9740044e-08   -796.61952            0   -796.61952    14112.091 
     831 6.3048007e-08   -796.61952            0   -796.61952    14112.092 
     832 7.9499681e-08   -796.61952            0   -796.61952    14112.093 
     833 9.8196119e-08   -796.61952            0   -796.61952    14112.094 
     834 1.1885355e-07   -796.61952            0   -796.61952    14112.096 
     835 1.4141615e-07   -796.61952            0   -796.61952    14112.097 
     836 1.6585542e-07   -796.61952            0   -796.61952    14112.099 
     837 1.9214374e-07   -796.61952            0   -796.61952    14112.101 
     838 2.2025105e-07   -796.61952            0   -796.61952    14112.103 
     839 2.5014511e-07   -796.61952            0   -796.61952    14112.105 
     840 2.8179155e-07   -796.61952            0   -796.61952    14112.108 
     841 3.1515385e-07   -796.61952            0   -796.61952     14112.11 
     842 3.5019342e-07   -796.61953            0   -796.61953    14112.113 
     843 3.8686969e-07   -796.61953            0   -796.61953    14112.116 
     844 4.2514009e-07   -796.61953            0   -796.61953    14112.119 
     845 4.6496017e-07   -796.61953            0   -796.61953    14112.122 
     846 5.062836e-07   -796.61953            0   -796.61953    14112.126 
     847 5.4906233e-07   -796.61953            0   -796.61953    14112.129 
     848 5.9324649e-07   -796.61953            0   -796.61953    14112.133 
     849 6.3878472e-07   -796.61954            0   -796.61954    14112.137 
     850 6.8562381e-07   -796.61954            0   -796.61954    14112.141 
     851 7.337096e-07   -796.61954            0   -796.61954    14112.145 
     852 7.829852e-07   -796.61954            0   -796.61954    14112.149 
     853 8.3339556e-07   -796.61954            0   -796.61954    14112.153 
     854 8.8487592e-07   -796.61955            0   -796.61955    14112.158 
     855 9.3738362e-07   -796.61955            0   -796.61955    14112.163 
     856 9.9080469e-07   -796.61955            0   -796.61955    14112.168 
     857 1.0452253e-06   -796.61955            0   -796.61955    14112.172 
     858 1.0998895e-06   -796.61955            0   -796.61955    14112.178 
     859 1.1547076e-06   -796.61956            0   -796.61956    14112.182 
     860 1.1784047e-06   -796.61956            0   -796.61956    14112.191 
     861 9.1797874e-07   -796.61956            0   -796.61956    14112.186 
     862 6.2418654e-08   -796.61956            0   -796.61956     14112.19 
     863 6.2971291e-08   -796.61956            0   -796.61956    14112.194 
     864 6.4396581e-08   -796.61956            0   -796.61956    14112.195 
     865 7.7889694e-08   -796.61956            0   -796.61956    14112.197 
     866 9.2893505e-08   -796.61956            0   -796.61956    14112.198 
     867 1.0916839e-07   -796.61956            0   -796.61956      14112.2 
     868 1.2669262e-07   -796.61956            0   -796.61956    14112.201 
     869 1.454475e-07   -796.61956            0   -796.61956    14112.203 
     870 1.6541168e-07   -796.61957            0   -796.61957    14112.205 
     871 1.8656295e-07   -796.61957            0   -796.61957    14112.207 
     872 2.0887733e-07   -796.61957            0   -796.61957    14112.209 
     873 2.3232976e-07   -796.61957            0   -796.61957    14112.212 
     874 2.5689357e-07   -796.61957            0   -796.61957    14112.214 
     875 2.8254111e-07   -796.61957            0   -796.61957    14112.217 
     876 3.0924304e-07   -796.61957            0   -796.61957     14112.22 
     877 3.369694e-07   -796.61957            0   -796.61957    14112.222 
     878 3.656881e-07   -796.61957            0   -796.61957    14112.225 
     879 3.9536751e-07   -796.61958            0   -796.61958    14112.229 
     880 4.2597187e-07   -796.61958            0   -796.61958    14112.232 
     881 4.5747051e-07   -796.61958            0   -796.61958    14112.235 
     882 4.8981828e-07   -796.61958            0   -796.61958    14112.239 
     883 5.2300003e-07   -796.61958            0   -796.61958    14112.242 
     884 5.5691972e-07   -796.61958            0   -796.61958    14112.246 
     885 5.9166956e-07   -796.61959            0   -796.61959     14112.25 
     886 6.2662752e-07   -796.61959            0   -796.61959    14112.254 
     887 6.6159311e-07   -796.61959            0   -796.61959    14112.258 
     888 6.7842332e-07   -796.61959            0   -796.61959    14112.264 
     889 5.6429677e-07   -796.61959            0   -796.61959    14112.262 
     890 1.016781e-07   -796.61959            0   -796.61959    14112.267 
     891 5.292548e-08   -796.61959            0   -796.61959    14112.268 
     892 6.304487e-08   -796.61959            0   -796.61959    14112.269 
     893 7.450952e-08   -796.61959            0   -796.61959    14112.271 
     894 8.6879372e-08   -796.61959            0   -796.61959    14112.272 
     895 1.0015465e-07    -796.6196            0    -796.6196    14112.274 
     896 1.1431376e-07    -796.6196            0    -796.6196    14112.275 
     897 1.2934468e-07    -796.6196            0    -796.6196    14112.277 
     898 1.4522825e-07    -796.6196            0    -796.6196    14112.279 
     899 1.6194902e-07    -796.6196            0    -796.6196    14112.281 
     900 1.7948621e-07    -796.6196            0    -796.6196    14112.283 
     901 1.9782283e-07    -796.6196            0    -796.6196    14112.286 
     902 2.1693513e-07    -796.6196            0    -796.6196    14112.288 
     903 2.3680655e-07    -796.6196            0    -796.6196     14112.29 
     904 2.5740719e-07    -796.6196            0    -796.6196    14112.293 
     905 2.7872724e-07    -796.6196            0    -796.6196    14112.296 
     906 3.0071695e-07   -796.61961            0   -796.61961    14112.299 
     907 3.2340066e-07   -796.61961            0   -796.61961    14112.301 
     908 3.4662575e-07   -796.61961            0   -796.61961    14112.305 
     909 3.7054946e-07   -796.61961            0   -796.61961    14112.308 
     910 3.9395305e-07   -796.61961            0   -796.61961    14112.311 
     911 4.1473398e-07   -796.61961            0   -796.61961    14112.314 
     912 4.0053217e-07   -796.61961            0   -796.61961     14112.32 
     913 2.3763587e-07   -796.61961            0   -796.61961    14112.317 
     914 3.4968551e-08   -796.61961            0   -796.61961     14112.32 
     915 3.3970719e-08   -796.61962            0   -796.61962    14112.321 
     916 4.0390354e-08   -796.61962            0   -796.61962    14112.322 
     917 4.8465704e-08   -796.61962            0   -796.61962    14112.323 
     918 5.7247911e-08   -796.61962            0   -796.61962    14112.325 
     919 6.6729257e-08   -796.61962            0   -796.61962    14112.326 
     920 7.6899127e-08   -796.61962            0   -796.61962    14112.327 
     921 8.7746623e-08   -796.61962            0   -796.61962    14112.329 
     922 9.9259852e-08   -796.61962            0   -796.61962    14112.331 
     923 1.1142629e-07   -796.61962            0   -796.61962    14112.332 
     924 1.2423257e-07   -796.61962            0   -796.61962    14112.334 
     925 1.3766467e-07   -796.61962            0   -796.61962    14112.336 
     926 1.5170776e-07   -796.61962            0   -796.61962    14112.338 
     927 1.6634646e-07   -796.61962            0   -796.61962     14112.34 
     928 1.8156451e-07   -796.61962            0   -796.61962    14112.342 
     929 1.9734529e-07   -796.61962            0   -796.61962    14112.345 
     930 2.1367104e-07   -796.61963            0   -796.61963    14112.347 
     931 2.3052435e-07   -796.61963            0   -796.61963     14112.35 
     932 2.4788526e-07   -796.61963            0   -796.61963    14112.352 
     933 2.6573745e-07   -796.61963            0   -796.61963    14112.355 
     934 2.8405425e-07   -796.61963            0   -796.61963    14112.358 
     935 3.0283225e-07   -796.61963            0   -796.61963    14112.361 
     936 3.2200128e-07   -796.61963            0   -796.61963    14112.364 
     937 3.4164489e-07   -796.61963            0   -796.61963    14112.367 
     938 3.6111208e-07   -796.61964            0   -796.61964    14112.371 
     939 3.7922842e-07   -796.61964            0   -796.61964    14112.373 
     940 3.6770275e-07   -796.61964            0   -796.61964    14112.379 
     941 1.8962003e-07   -796.61964            0   -796.61964    14112.376 
     942 1.0117174e-08   -796.61964            0   -796.61964    14112.377 
     943 1.2938344e-08   -796.61964            0   -796.61964    14112.379 
     944 1.5735339e-08   -796.61964            0   -796.61964     14112.38 
     945 1.9648792e-08   -796.61964            0   -796.61964    14112.381 
     946 2.4450577e-08   -796.61964            0   -796.61964    14112.382 
     947 2.9798059e-08   -796.61964            0   -796.61964    14112.382 
     948 3.5655756e-08   -796.61964            0   -796.61964    14112.383 
     949 4.2019241e-08   -796.61964            0   -796.61964    14112.385 
     950 4.8881677e-08   -796.61964            0   -796.61964    14112.386 
     951 5.6235761e-08   -796.61964            0   -796.61964    14112.387 
     952 6.4073604e-08   -796.61964            0   -796.61964    14112.388 
     953 7.2386782e-08   -796.61964            0   -796.61964     14112.39 
     954 8.1166323e-08   -796.61964            0   -796.61964    14112.391 
     955 9.0402735e-08   -796.61964            0   -796.61964    14112.393 
     956  1.00086e-07   -796.61965            0   -796.61965    14112.394 
     957 1.1020562e-07   -796.61965            0   -796.61965    14112.396 
     958 1.2075057e-07   -796.61965            0   -796.61965    14112.398 
     959 1.3170937e-07   -796.61965            0   -796.61965      14112.4 
     960 1.4307007e-07   -796.61965            0   -796.61965    14112.402 
     961 1.548203e-07   -796.61965            0   -796.61965    14112.404 
     962 1.6694717e-07   -796.61965            0   -796.61965    14112.407 
     963 1.7943753e-07   -796.61965            0   -796.61965    14112.409 
     964 1.922775e-07   -796.61965            0   -796.61965    14112.411 
     965 2.0545359e-07   -796.61965            0   -796.61965    14112.414 
     966   2.1895e-07   -796.61965            0   -796.61965    14112.416 
     967 2.3275571e-07   -796.61966            0   -796.61966    14112.419 
     968 2.4684432e-07   -796.61966            0   -796.61966    14112.422 
     969 2.6123069e-07   -796.61966            0   -796.61966    14112.425 
     970 2.7575812e-07   -796.61966            0   -796.61966    14112.428 
     971 2.9039141e-07   -796.61966            0   -796.61966     14112.43 
     972 2.9910961e-07   -796.61966            0   -796.61966    14112.434 
     973 2.5303666e-07   -796.61966            0   -796.61966    14112.433 
     974 3.6259645e-08   -796.61966            0   -796.61966    14112.437 
     975 1.9971239e-08   -796.61966            0   -796.61966    14112.437 
     976 2.3972605e-08   -796.61966            0   -796.61966    14112.438 
     977 2.8347736e-08   -796.61966            0   -796.61966    14112.439 
     978 3.3072213e-08   -796.61966            0   -796.61966     14112.44 
     979 3.8143127e-08   -796.61966            0   -796.61966    14112.441 
     980 4.355423e-08   -796.61967            0   -796.61967    14112.442 
     981 4.9300261e-08   -796.61967            0   -796.61967    14112.444 
     982 5.5374737e-08   -796.61967            0   -796.61967    14112.445 
     983 6.177148e-08   -796.61967            0   -796.61967    14112.446 
     984 6.8483309e-08   -796.61967            0   -796.61967    14112.448 
     985 7.5503405e-08   -796.61967            0   -796.61967    14112.449 
     986 8.2823699e-08   -796.61967            0   -796.61967    14112.451 
     987 9.0437075e-08   -796.61967            0   -796.61967    14112.452 
     988 9.8334055e-08   -796.61967            0   -796.61967    14112.454 
     989 1.0650835e-07   -796.61967            0   -796.61967    14112.456 
     990 1.1494672e-07   -796.61967            0   -796.61967    14112.458 
     991 1.2364886e-07   -796.61967            0   -796.61967     14112.46 
     992 1.325836e-07   -796.61967            0   -796.61967    14112.462 
     993 1.4178136e-07   -796.61967            0   -796.61967    14112.464 
     994 1.5105052e-07   -796.61967            0   -796.61967    14112.466 
     995 1.602785e-07   -796.61968            0   -796.61968    14112.468 
     996 1.6496948e-07   -796.61968            0   -796.61968    14112.471 
     997 1.4161685e-07   -796.61968            0   -796.61968    14112.471 
     998 3.9315738e-08   -796.61968            0   -796.61968    14112.474 
     999 1.266689e-08   -796.61968            0   -796.61968    14112.474 
    1000 1.4128073e-08   -796.61968            0   -796.61968    14112.475 
    1001 1.7068132e-08   -796.61968            0   -796.61968    14112.475 
    1002 2.0290486e-08   -796.61968            0   -796.61968    14112.476 
    1003 2.377959e-08   -796.61968            0   -796.61968    14112.477 
    1004 2.7532641e-08   -796.61968            0   -796.61968    14112.478 
    1005 3.1545401e-08   -796.61968            0   -796.61968    14112.479 
    1006 3.5813791e-08   -796.61968            0   -796.61968     14112.48 
    1007 4.0333194e-08   -796.61968            0   -796.61968    14112.481 
    1008 4.5098902e-08   -796.61968            0   -796.61968    14112.482 
    1009 5.010576e-08   -796.61968            0   -796.61968    14112.483 
    1010 5.534853e-08   -796.61968            0   -796.61968    14112.485 
    1011 6.0821486e-08   -796.61968            0   -796.61968    14112.486 
    1012 6.6518955e-08   -796.61968            0   -796.61968    14112.488 
    1013 7.2434543e-08   -796.61968            0   -796.61968    14112.489 
    1014 7.856241e-08   -796.61968            0   -796.61968    14112.491 
    1015 8.4895013e-08   -796.61969            0   -796.61969    14112.492 
    1016 9.1427487e-08   -796.61969            0   -796.61969    14112.494 
    1017 9.814842e-08   -796.61969            0   -796.61969    14112.496 
    1018 1.0506016e-07   -796.61969            0   -796.61969    14112.498 
    1019 1.1212667e-07   -796.61969            0   -796.61969      14112.5 
    1020 1.1938297e-07   -796.61969            0   -796.61969    14112.502 
    1021 1.264324e-07   -796.61969            0   -796.61969    14112.504 
    1022 1.320432e-07   -796.61969            0   -796.61969    14112.505 
    1023 1.1945834e-07   -796.61969            0   -796.61969    14112.509 
[...]
    2065 1.5398839e-06   -796.58761            0   -796.58761    13997.772 
    2066 1.6619623e-06   -796.58762            0   -796.58762    13997.783 
    2067 1.7888109e-06   -796.58762            0   -796.58762    13997.793 
    2068 1.9204671e-06   -796.58762            0   -796.58762    13997.804 
    2069 2.0568832e-06   -796.58762            0   -796.58762    13997.816 
    2070 2.1982473e-06   -796.58763            0   -796.58763    13997.828 
    2071 2.3440152e-06   -796.58763            0   -796.58763     13997.84 
    2072 2.4956701e-06   -796.58763            0   -796.58763    13997.852 
    2073 2.6444869e-06   -796.58764            0   -796.58764    13997.868 
    2074 2.7720928e-06   -796.58764            0   -796.58764    13997.873 
    2075 2.1934094e-06   -796.58764            0   -796.58764    13997.902 
    2076 9.2081813e-08   -796.58764            0   -796.58764    13997.898 
    2077 1.0619725e-07   -796.58764            0   -796.58764    13997.895 
    2078 1.0555172e-07   -796.58765            0   -796.58765    13997.894 
    2079 1.1567119e-07   -796.58765            0   -796.58765    13997.896 
    2080 1.418198e-07   -796.58765            0   -796.58765    13997.898 
    2081 1.7303774e-07   -796.58765            0   -796.58765    13997.901 
    2082 2.0745161e-07   -796.58765            0   -796.58765    13997.905 
    2083 2.449701e-07   -796.58765            0   -796.58765    13997.909 
    2084 2.8558554e-07   -796.58765            0   -796.58765    13997.913 
    2085 3.2929099e-07   -796.58765            0   -796.58765    13997.917 
    2086 3.7607851e-07   -796.58765            0   -796.58765    13997.922 
    2087 4.2593958e-07   -796.58765            0   -796.58765    13997.927 
    2088 4.7886486e-07   -796.58766            0   -796.58766    13997.933 
    2089 5.3484429e-07   -796.58766            0   -796.58766    13997.939 
    2090  5.93867e-07   -796.58766            0   -796.58766    13997.945 
    2091 6.5592137e-07   -796.58766            0   -796.58766    13997.951 
    2092 7.2099488e-07   -796.58766            0   -796.58766    13997.958 
    2093 7.890743e-07   -796.58766            0   -796.58766    13997.965 
    2094 8.6014539e-07   -796.58767            0   -796.58767    13997.973 
    2095 9.3419334e-07   -796.58767            0   -796.58767    13997.981 
    2096 1.011202e-06   -796.58767            0   -796.58767    13997.989 
    2097 1.0911554e-06   -796.58767            0   -796.58767    13997.997 
    2098 1.1740344e-06   -796.58768            0   -796.58768    13998.006 
    2099 1.259825e-06   -796.58768            0   -796.58768    13998.015 
    2100 1.3484971e-06   -796.58768            0   -796.58768    13998.025 
    2101 1.4400619e-06   -796.58768            0   -796.58768    13998.035 
    2102 1.5344051e-06   -796.58769            0   -796.58769    13998.045 
    2103 1.6317837e-06   -796.58769            0   -796.58769    13998.056 
    2104 1.7310103e-06   -796.58769            0   -796.58769    13998.067 
    2105 1.8333069e-06   -796.58769            0   -796.58769    13998.077 
    2106 1.8933482e-06    -796.5877            0    -796.5877    13998.094 
    2107 1.4814983e-06    -796.5877            0    -796.5877    13998.086 
    2108 4.1100014e-08    -796.5877            0    -796.5877     13998.09 
    2109 5.2791434e-08    -796.5877            0    -796.5877    13998.095 
    2110 5.9131866e-08    -796.5877            0    -796.5877    13998.099 
    2111 6.4960679e-08    -796.5877            0    -796.5877    13998.102 
    2112 7.9261691e-08    -796.5877            0    -796.5877    13998.104 
    2113 9.7907769e-08    -796.5877            0    -796.5877    13998.107 
    2114 1.1866617e-07    -796.5877            0    -796.5877    13998.109 
    2115 1.4138518e-07    -796.5877            0    -796.5877    13998.112 
    2116   1.6606e-07    -796.5877            0    -796.5877    13998.116 
    2117 1.9267858e-07   -796.58771            0   -796.58771    13998.119 
    2118 2.2122843e-07   -796.58771            0   -796.58771    13998.123 
    2119 2.5169588e-07   -796.58771            0   -796.58771    13998.127 
    2120 2.8406631e-07   -796.58771            0   -796.58771    13998.131 
    2121 3.1832403e-07   -796.58771            0   -796.58771    13998.136 
    2122 3.5445241e-07   -796.58771            0   -796.58771    13998.141 
    2123 3.9243371e-07   -796.58771            0   -796.58771    13998.146 
    2124 4.3224927e-07   -796.58771            0   -796.58771    13998.151 
    2125 4.7387934e-07   -796.58772            0   -796.58772    13998.157 
    2126 5.1730331e-07   -796.58772            0   -796.58772    13998.163 
    2127 5.6249937e-07   -796.58772            0   -796.58772    13998.169 
    2128 6.0944514e-07   -796.58772            0   -796.58772    13998.175 
    2129 6.5811656e-07   -796.58772            0   -796.58772    13998.182 
    2130 7.0849026e-07   -796.58772            0   -796.58772    13998.189 
    2131 7.6053829e-07   -796.58773            0   -796.58773    13998.197 
    2132 8.1424112e-07   -796.58773            0   -796.58773    13998.204 
    2133 8.6955354e-07   -796.58773            0   -796.58773    13998.212 
    2134 9.2649948e-07   -796.58773            0   -796.58773     13998.22 
    2135 9.8487511e-07   -796.58773            0   -796.58773    13998.228 
    2136 1.0450571e-06   -796.58774            0   -796.58774    13998.237 
    2137 1.1035097e-06   -796.58774            0   -796.58774    13998.247 
    2138 1.1447981e-06   -796.58774            0   -796.58774    13998.252 
    2139 8.8131202e-07   -796.58774            0   -796.58774    13998.269 
    2140 4.6762056e-08   -796.58774            0   -796.58774    13998.266 
    2141 5.1189543e-08   -796.58774            0   -796.58774    13998.265 
    2142 5.1150206e-08   -796.58774            0   -796.58774    13998.266 
    2143 6.0834782e-08   -796.58774            0   -796.58774    13998.268 
    2144 7.3694668e-08   -796.58774            0   -796.58774     13998.27 
    2145 8.7813831e-08   -796.58775            0   -796.58775    13998.272 
    2146  1.03137e-07   -796.58775            0   -796.58775    13998.275 
    2147 1.1965482e-07   -796.58775            0   -796.58775    13998.277 
    2148 1.3735528e-07   -796.58775            0   -796.58775     13998.28 
    2149 1.5622603e-07   -796.58775            0   -796.58775    13998.284 
    2150 1.7625352e-07   -796.58775            0   -796.58775    13998.287 
    2151 1.9742355e-07   -796.58775            0   -796.58775    13998.291 
    2152 2.1972084e-07   -796.58775            0   -796.58775    13998.295 
    2153 2.4312943e-07   -796.58775            0   -796.58775    13998.299 
    2154 2.6763233e-07   -796.58775            0   -796.58775    13998.303 
    2155 2.9321195e-07   -796.58775            0   -796.58775    13998.308 
    2156 3.198495e-07   -796.58776            0   -796.58776    13998.312 
    2157 3.4752604e-07   -796.58776            0   -796.58776    13998.317 
    2158 3.7622067e-07   -796.58776            0   -796.58776    13998.322 
    2159 4.0591412e-07   -796.58776            0   -796.58776    13998.328 
    2160 4.3658119e-07   -796.58776            0   -796.58776    13998.333 
    2161 4.6820814e-07   -796.58776            0   -796.58776    13998.339 
    2162 5.0074948e-07   -796.58776            0   -796.58776    13998.345 
    2163 5.3423886e-07   -796.58777            0   -796.58777    13998.351 
    2164 5.6844098e-07   -796.58777            0   -796.58777    13998.358 
    2165 6.0356088e-07   -796.58777            0   -796.58777    13998.364 
    2166 6.3402884e-07   -796.58777            0   -796.58777    13998.372 
    2167 6.224004e-07   -796.58777            0   -796.58777    13998.375 
    2168 2.7905758e-07   -796.58777            0   -796.58777    13998.385 
    2169 8.0420217e-09   -796.58777            0   -796.58777    13998.385 
    2170 1.1837791e-08   -796.58777            0   -796.58777    13998.384 
    2171 1.5989551e-08   -796.58777            0   -796.58777    13998.384 
    2172 2.0565561e-08   -796.58777            0   -796.58777    13998.385 
    2173 2.6214183e-08   -796.58777            0   -796.58777    13998.386 
    2174 3.2897442e-08   -796.58778            0   -796.58778    13998.387 
    2175 4.0398699e-08   -796.58778            0   -796.58778    13998.389 
    2176 4.8659598e-08   -796.58778            0   -796.58778     13998.39 
    2177 5.7666901e-08   -796.58778            0   -796.58778    13998.392 
    2178 6.7412356e-08   -796.58778            0   -796.58778    13998.394 
    2179 7.788742e-08   -796.58778            0   -796.58778    13998.397 
    2180 8.9082795e-08   -796.58778            0   -796.58778    13998.399 
    2181 1.0098853e-07   -796.58778            0   -796.58778    13998.402 
    2182 1.1359398e-07   -796.58778            0   -796.58778    13998.405 
    2183 1.2688785e-07   -796.58778            0   -796.58778    13998.408 
    2184 1.4085819e-07   -796.58778            0   -796.58778    13998.411 
    2185 1.5549243e-07   -796.58778            0   -796.58778    13998.414 
    2186 1.7077733e-07   -796.58778            0   -796.58778    13998.418 
    2187 1.8669909e-07   -796.58778            0   -796.58778    13998.421 
    2188 2.0324328e-07   -796.58779            0   -796.58779    13998.425 
    2189 2.2039494e-07   -796.58779            0   -796.58779    13998.429 
    2190 2.3813847e-07   -796.58779            0   -796.58779    13998.433 
    2191 2.5645796e-07   -796.58779            0   -796.58779    13998.437 
    2192 2.7533647e-07   -796.58779            0   -796.58779    13998.442 
    2193 2.9475784e-07   -796.58779            0   -796.58779    13998.447 
    2194 3.1470225e-07   -796.58779            0   -796.58779    13998.451 
    2195 3.3515834e-07   -796.58779            0   -796.58779    13998.456 
    2196 3.5608698e-07   -796.58779            0   -796.58779    13998.462 
    2197 3.7752612e-07    -796.5878            0    -796.5878    13998.467 
    2198 3.9913311e-07    -796.5878            0    -796.5878    13998.472 
    2199 4.2033204e-07    -796.5878            0    -796.5878    13998.477 
    2200 4.1841712e-07    -796.5878            0    -796.5878    13998.485 
    2201 2.2437759e-07    -796.5878            0    -796.5878    13998.483 
    2202 1.3286708e-09    -796.5878            0    -796.5878    13998.484 
    2203 2.5644015e-09    -796.5878            0    -796.5878    13998.484 
    2204 4.242648e-09    -796.5878            0    -796.5878    13998.485 
    2205 6.3609903e-09    -796.5878            0    -796.5878    13998.487 
    2206 8.8246641e-09    -796.5878            0    -796.5878    13998.488 
    2207 1.160605e-08    -796.5878            0    -796.5878    13998.489 
    2208 1.4923516e-08    -796.5878            0    -796.5878     13998.49 
    2209 1.8762048e-08    -796.5878            0    -796.5878    13998.491 
    2210 2.3042699e-08    -796.5878            0    -796.5878    13998.493 
    2211 2.7748891e-08    -796.5878            0    -796.5878    13998.494 
    2212 3.2876942e-08    -796.5878            0    -796.5878    13998.495 
    2213 3.8421657e-08    -796.5878            0    -796.5878    13998.497 
    2214 4.4377189e-08    -796.5878            0    -796.5878    13998.499 
    2215 5.0737257e-08    -796.5878            0    -796.5878    13998.501 
    2216 5.749512e-08   -796.58781            0   -796.58781    13998.503 
    2217 6.4643594e-08   -796.58781            0   -796.58781    13998.505 
    2218 7.2175054e-08   -796.58781            0   -796.58781    13998.507 
    2219 8.0081451e-08   -796.58781            0   -796.58781    13998.509 
    2220 8.8354314e-08   -796.58781            0   -796.58781    13998.512 
    2221 9.6984771e-08   -796.58781            0   -796.58781    13998.515 
    2222 1.0596355e-07   -796.58781            0   -796.58781    13998.517 
    2223  1.15281e-07   -796.58781            0   -796.58781     13998.52 
    2224 1.2492709e-07   -796.58781            0   -796.58781    13998.523 
    2225 1.3489148e-07   -796.58781            0   -796.58781    13998.526 
    2226 1.4516339e-07   -796.58781            0   -796.58781     13998.53 
    2227 1.5573199e-07   -796.58781            0   -796.58781    13998.533 
    2228 1.6658548e-07   -796.58781            0   -796.58781    13998.537 
    2229 1.7771352e-07   -796.58782            0   -796.58781     13998.54 
    2230 1.8910057e-07   -796.58782            0   -796.58782    13998.544 
    2231 2.0074525e-07   -796.58782            0   -796.58782    13998.548 
    2232 2.1259184e-07   -796.58782            0   -796.58782    13998.552 
    2233 2.2467811e-07   -796.58782            0   -796.58782    13998.556 
    2234 2.354186e-07   -796.58782            0   -796.58782    13998.561 
    2235 2.3066952e-07   -796.58782            0   -796.58782    13998.563 
    2236 9.2284895e-08   -796.58782            0   -796.58782    13998.569 
    2237 4.3462533e-10   -796.58782            0   -796.58782    13998.569 
    2238 9.5742888e-10   -796.58782            0   -796.58782    13998.568 
    2239 1.7243297e-09   -796.58782            0   -796.58782    13998.568 
    2240 2.7591112e-09   -796.58782            0   -796.58782    13998.568 
    2241 4.0464626e-09   -796.58782            0   -796.58782    13998.568 
    2242 5.5203332e-09   -796.58782            0   -796.58782    13998.568 
    2243 7.2201115e-09   -796.58782            0   -796.58782    13998.569 
    2244 9.1973912e-09   -796.58782            0   -796.58782     13998.57 
    2245 1.143131e-08   -796.58782            0   -796.58782     13998.57 
    2246 1.3905038e-08   -796.58782            0   -796.58782    13998.571 
    2247 1.6612769e-08   -796.58782            0   -796.58782    13998.572 
    2248 1.9550944e-08   -796.58782            0   -796.58782    13998.574 
    2249 2.2716077e-08   -796.58782            0   -796.58782    13998.575 
    2250 2.6104377e-08   -796.58782            0   -796.58782    13998.576 
    2251 2.9711775e-08   -796.58782            0   -796.58782    13998.578 
    2252 3.3533918e-08   -796.58783            0   -796.58783    13998.579 
    2253 3.7566184e-08   -796.58783            0   -796.58783    13998.581 
    2254 4.1803683e-08   -796.58783            0   -796.58783    13998.583 
    2255 4.6241264e-08   -796.58783            0   -796.58783    13998.584 
    2256 5.0873527e-08   -796.58783            0   -796.58783    13998.586 
    2257 5.5694826e-08   -796.58783            0   -796.58783    13998.588 
    2258 6.0699277e-08   -796.58783            0   -796.58783    13998.591 
    2259 6.5880776e-08   -796.58783            0   -796.58783    13998.593 
    2260 7.1232993e-08   -796.58783            0   -796.58783    13998.595 
    2261 7.6749409e-08   -796.58783            0   -796.58783    13998.597 
    2262 8.2423272e-08   -796.58783            0   -796.58783      13998.6 
    2263 8.8247747e-08   -796.58783            0   -796.58783    13998.602 
    2264 9.4215561e-08   -796.58783            0   -796.58783    13998.605 
    2265 1.0032005e-07   -796.58783            0   -796.58783    13998.608 
    2266 1.0655206e-07   -796.58783            0   -796.58783    13998.611 
    2267 1.1290937e-07   -796.58783            0   -796.58783    13998.614 
    2268 1.1935997e-07   -796.58783            0   -796.58783    13998.617 
    2269 1.2590307e-07   -796.58784            0   -796.58784     13998.62 
    2270 1.3129167e-07   -796.58784            0   -796.58784    13998.623 
    2271 1.2210995e-07   -796.58784            0   -796.58784    13998.625 
    2272 2.836186e-08   -796.58784            0   -796.58784    13998.628 
    2273 7.383353e-10   -796.58784            0   -796.58784    13998.628 
    2274 1.2409031e-09   -796.58784            0   -796.58784    13998.628 
    2275 1.9085333e-09   -796.58784            0   -796.58784    13998.628 
    2276 2.7020822e-09   -796.58784            0   -796.58784    13998.628 
    2277 3.6021175e-09   -796.58784            0   -796.58784    13998.629 
    2278 4.6287611e-09   -796.58784            0   -796.58784    13998.629 
    2279 5.7863694e-09   -796.58784            0   -796.58784     13998.63 
    2280 7.0709022e-09   -796.58784            0   -796.58784     13998.63 
    2281 8.479556e-09   -796.58784            0   -796.58784    13998.631 
    2282 1.001028e-08   -796.58784            0   -796.58784    13998.632 
    2283 1.1661061e-08   -796.58784            0   -796.58784    13998.633 
    2284 1.3429718e-08   -796.58784            0   -796.58784    13998.634 
    2285  1.53139e-08   -796.58784            0   -796.58784    13998.635 
    2286 1.7311098e-08   -796.58784            0   -796.58784    13998.636 
    2287 1.9418642e-08   -796.58784            0   -796.58784    13998.637 
    2288 2.1633707e-08   -796.58784            0   -796.58784    13998.639 
    2289 2.3953317e-08   -796.58784            0   -796.58784     13998.64 
    2290 2.6374353e-08   -796.58784            0   -796.58784    13998.641 
    2291 2.8893551e-08   -796.58784            0   -796.58784    13998.643 
    2292 3.1507516e-08   -796.58784            0   -796.58784    13998.644 
    2293 3.4212718e-08   -796.58784            0   -796.58784    13998.646 
    2294 3.7005509e-08   -796.58784            0   -796.58784    13998.648 
    2295 3.9882114e-08   -796.58784            0   -796.58784    13998.649 
    2296 4.2838663e-08   -796.58784            0   -796.58784    13998.651 
    2297 4.5871155e-08   -796.58784            0   -796.58784    13998.653 
    2298 4.8975551e-08   -796.58784            0   -796.58784    13998.655 
    2299 5.2147585e-08   -796.58784            0   -796.58784    13998.657 
    2300 5.5383284e-08   -796.58785            0   -796.58785    13998.659 
    2301 5.8677536e-08   -796.58785            0   -796.58785    13998.661 
    2302 6.2028523e-08   -796.58785            0   -796.58785    13998.663 
    2303 6.5423328e-08   -796.58785            0   -796.58785    13998.666 
    2304 6.8893427e-08   -796.58785            0   -796.58785    13998.668 
    2305 7.2373049e-08   -796.58785            0   -796.58785     13998.67 
    2306 7.7547932e-08   -796.58785            0   -796.58785    13998.671 
    2307 7.8812786e-08   -796.58785            0   -796.58785    13998.677 
    2308 1.6041075e-10   -796.58785            0   -796.58785    13998.677 
Loop time of 421.229 on 16 procs for 842 steps with 127 atoms

96.0% CPU use with 16 MPI tasks x no OpenMP threads

Minimization stats:
  Stopping criterion = energy tolerance
  Energy initial, next-to-last, final = 
        -796.619774801     -796.587849341     -796.587849344
  Force two-norm initial, final = 4.71398e-06 5.8982e-05
  Force max component initial, final = 2.97446e-06 1.92293e-05
  Final line search alpha, max atom move = 0 0
  Iterations, force evaluations = 842 842

MPI task timing breakdown:
Section |  min time  |  avg time  |  max time  |%varavg| %total
---------------------------------------------------------------
Pair    | 245.11     | 264.42     | 281.98     |  61.2 | 62.77
Neigh   | 0          | 0          | 0          |   0.0 |  0.00
Comm    | 59.26      | 76.855     | 96.136     | 113.5 | 18.25
Output  | 0.21562    | 0.28702    | 0.3084     |   5.3 |  0.07
Modify  | 71.19      | 71.237     | 71.276     |   0.4 | 16.91
Other   |            | 8.431      |            |       |  2.00

Nlocal:    7.9375 ave 8 max 7 min
Histogram: 1 0 0 0 0 0 0 0 0 15
Nghost:    817.062 ave 821 max 816 min
Histogram: 12 0 0 0 0 0 0 0 3 1
Neighs:    0 ave 0 max 0 min
Histogram: 16 0 0 0 0 0 0 0 0 0
FullNghs:  1601.62 ave 1630 max 1411 min
Histogram: 1 0 0 0 0 0 0 0 6 9

Total # of neighbors = 25626
Ave neighs/atom = 201.78
Neighbor list builds = 0
Dangerous builds = 0
Total wall time: 0:19:23
