LAMMPS (12 Dec 2018)
Processor partition = 1
Reading data file ...
  orthogonal box = (0 0 0) to (10.0025 12.3537 10.615)
  2 by 4 by 2 MPI processor grid
  reading atoms ...
  127 atoms
Reading potential file lammps-force.nnp with DATE: 20201105
Neighbor list info ...
  update every 1 steps, delay 0 steps, check yes
  max neighbors/atom: 2000, page size: 100000
  master list distance cutoff = 8
  ghost atom cutoff = 8
  binsize = 4, bins = 3 4 3
  1 neighbor lists, perpetual/occasional/extra = 1 0 0
  (1) pair nnp3v, perpetual
      attributes: full, newton on
      pair build: full/bin/atomonly
      stencil: full/bin/3d
      bin: standard
Setting up quickmin style minimization ...
  Unit style    : metal
  Current step  : 0
Per MPI rank memory allocation (min/avg/max) = 2.736 | 2.736 | 2.736 Mbytes
Step Temp E_pair E_mol TotEng Press 
       0            0   -796.68047            0   -796.68047     13401.66 
       6  0.092325754   -796.68154            0   -796.68004    13408.421 
Loop time of 2.2632 on 16 procs for 6 steps with 127 atoms

98.6% CPU use with 16 MPI tasks x no OpenMP threads

Minimization stats:
  Stopping criterion = energy tolerance
  Energy initial, next-to-last, final = 
        -796.680469343     -796.681189813     -796.681544239
  Force two-norm initial, final = 0.292034 0.283352
  Force max component initial, final = 0.0445202 0.0435203
  Final line search alpha, max atom move = 0 0
  Iterations, force evaluations = 6 6

MPI task timing breakdown:
Section |  min time  |  avg time  |  max time  |%varavg| %total
---------------------------------------------------------------
Pair    | 1.9228     | 2.1677     | 2.262      |   5.0 | 95.78
Neigh   | 0          | 0          | 0          |   0.0 |  0.00
Comm    | 0.00074935 | 0.095017   | 0.3399     |  24.0 |  4.20
Output  | 0          | 0          | 0          |   0.0 |  0.00
Modify  | 0          | 0          | 0          |   0.0 |  0.00
Other   |            | 0.0004811  |            |       |  0.02

Nlocal:    7.9375 ave 8 max 7 min
Histogram: 1 0 0 0 0 0 0 0 0 15
Nghost:    819.812 ave 824 max 816 min
Histogram: 4 0 0 0 0 8 0 1 1 2
Neighs:    0 ave 0 max 0 min
Histogram: 16 0 0 0 0 0 0 0 0 0
FullNghs:  1602 ave 1623 max 1420 min
Histogram: 1 0 0 0 0 0 0 0 1 14

Total # of neighbors = 25632
Ave neighs/atom = 201.827
Neighbor list builds = 0
Dangerous builds = 0
Setting up quickmin style minimization ...
  Unit style    : metal
  Current step  : 0
Per MPI rank memory allocation (min/avg/max) = 4.736 | 4.737 | 4.737 Mbytes
Step Temp E_pair E_mol TotEng Press 
       0            0   -796.24065            0   -796.24065    14192.806 
       1   0.22476302   -796.24065            0   -796.23699    14195.787 
       2    1.0648058   -796.24863            0   -796.23128    14200.551 
       3    2.9255496   -796.26546            0   -796.21782    14210.593 
       4    6.9072317   -796.29285            0   -796.18036    14233.361 
       5    14.640157   -796.33115            0   -796.09271    14270.789 
       6    25.833745   -796.37615            0    -795.9554    14277.479 
       7    36.425745   -796.42034            0   -795.82708    14164.228 
       8    41.623476   -796.45761            0    -795.7797    13938.252 
       9    43.047778   -796.48605            0   -795.78494     13753.85 
      10    41.440366   -796.50656            0   -795.83163    13645.564 
      11    26.663692   -796.51873            0   -796.08447    13385.425 
      12   0.23408054   -796.51963            0   -796.51582    13037.571 
      13    0.3950287   -796.52083            0   -796.51439    13042.908 
      14   0.66324439    -796.5224            0    -796.5116    13049.455 
      15   0.86982257   -796.52419            0   -796.51003    13053.695 
      16    1.0363832    -796.5261            0   -796.50923    13056.214 
      17    1.2162245   -796.52812            0   -796.50831    13058.707 
      18    1.4087551   -796.53022            0   -796.50727    13061.737 
      19    1.6135479   -796.53239            0   -796.50611    13065.525 
      20    1.8309422   -796.53462            0    -796.5048     13070.24 
      21    2.0613526    -796.5369            0   -796.50333    13075.995 
      22    2.3053041   -796.53922            0   -796.50167    13082.863 
      23    2.5633627   -796.54156            0   -796.49981     13090.88 
      24     2.836104   -796.54392            0   -796.49773    13100.053 
      25     3.124077   -796.54629            0   -796.49541    13110.379 
      26     3.427783   -796.54867            0   -796.49284    13121.821 
      27    3.7476289   -796.55104            0      -796.49    13134.349 
      28    4.0839718    -796.5534            0   -796.48689    13147.899 
      29    4.4371109   -796.55575            0   -796.48349    13162.416 
      30    4.8069611   -796.55808            0   -796.47979    13177.804 
      31     5.193972   -796.56039            0   -796.47579    13194.113 
      32    5.5955871   -796.56266            0   -796.47153    13210.826 
      33    6.0118158    -796.5649            0   -796.46699    13229.298 
      34    6.3008593   -796.56707            0   -796.46445    13241.374 
      35    4.7218428   -796.56859            0   -796.49169    13245.222 
      36  0.062788555    -796.5688            0   -796.56778    13180.235 
      37  0.084609548   -796.56902            0   -796.56765    13177.658 
      38   0.11120627   -796.56927            0   -796.56746    13176.444 
      39   0.13749259   -796.56955            0   -796.56731    13177.153 
      40   0.16538213   -796.56985            0   -796.56716    13179.033 
      41   0.19654489   -796.57018            0   -796.56698    13181.363 
      42   0.23033615   -796.57054            0   -796.56679    13183.907 
      43   0.26672553   -796.57092            0   -796.56658    13186.636 
      44   0.30569987   -796.57133            0   -796.56635     13189.55 
      45     0.347233   -796.57176            0   -796.56611    13192.645 
      46   0.39129644   -796.57222            0   -796.56584    13195.919 
      47   0.43785974   -796.57269            0   -796.56556    13199.362 
      48   0.48689051   -796.57319            0   -796.56526    13202.973 
      49   0.53835128   -796.57371            0   -796.56494    13206.746 
      50   0.59220192   -796.57424            0   -796.56459    13210.677 
      51   0.64839996   -796.57479            0   -796.56423    13214.756 
      52   0.70689853   -796.57536            0   -796.56384    13218.976 
      53   0.76764669   -796.57594            0   -796.56344     13223.33 
      54    0.8305901   -796.57654            0   -796.56301    13227.809 
      55   0.89567047   -796.57714            0   -796.56256    13232.405 
      56   0.96282415   -796.57776            0   -796.56208    13237.111 
      57    1.0319824   -796.57839            0   -796.56158    13241.917 
      58    1.1030709   -796.57903            0   -796.56107    13246.807 
      59    1.1760093   -796.57968            0   -796.56052    13251.761 
      60    1.2506961   -796.58033            0   -796.55996    13256.782 
      61    1.3270607   -796.58099            0   -796.55937    13261.863 
      62    1.4049906   -796.58165            0   -796.55876    13266.975 
      63    1.4844266   -796.58231            0   -796.55814    13272.127 
      64    1.5651335   -796.58298            0   -796.55749    13277.263 
      65    1.6471894   -796.58364            0   -796.55682    13282.548 
      66    1.7268168   -796.58431            0   -796.55619    13287.297 
      67    1.7723931   -796.58497            0    -796.5561    13293.419 
      68    1.3111353   -796.58548            0   -796.56413    13285.374 
      69  0.058540113   -796.58559            0   -796.58464    13272.063 
      70   0.08048783   -796.58572            0   -796.58441    13274.332 
      71  0.088323132   -796.58585            0   -796.58441    13275.182 
      72   0.10152078     -796.586            0   -796.58434    13276.222 
      73   0.11559237   -796.58615            0   -796.58427    13277.315 
      74   0.13051796   -796.58631            0   -796.58419    13278.474 
      75   0.14627916   -796.58648            0    -796.5841    13279.694 
      76   0.16285991   -796.58666            0   -796.58401    13280.974 
      77   0.18024205   -796.58685            0   -796.58391    13282.312 
      78   0.19840676   -796.58705            0   -796.58381    13283.704 
      79    0.2173336   -796.58725            0   -796.58371    13285.149 
      80    0.2370019   -796.58746            0    -796.5836    13286.646 
      81   0.25738948   -796.58768            0   -796.58349     13288.19 
      82   0.27847192    -796.5879            0   -796.58337     13289.78 
      83   0.30022565   -796.58813            0   -796.58324    13291.413 
      84   0.32262554   -796.58837            0   -796.58312    13293.087 
      85   0.34564445   -796.58862            0   -796.58299      13294.8 
      86   0.36925534   -796.58886            0   -796.58285     13296.55 
      87   0.39342903   -796.58912            0   -796.58271    13298.333 
      88   0.41813594   -796.58938            0   -796.58257    13300.152 
      89   0.44334462   -796.58964            0   -796.58242    13301.991 
      90   0.46901779   -796.58991            0   -796.58227    13303.868 
      91   0.49511381   -796.59018            0   -796.58212    13305.724 
      92   0.52146281   -796.59046            0   -796.58196    13307.713 
      93    0.5472674   -796.59073            0   -796.58182    13309.388 
      94   0.56431311   -796.59101            0   -796.58182    13311.866 
      95   0.50603391   -796.59126            0   -796.58302     13310.58 
      96   0.16462663   -796.59139            0   -796.58871     13309.59 
      97  0.015292489   -796.59143            0   -796.59118    13307.024 
      98  0.020430085   -796.59148            0   -796.59115     13306.91 
      99  0.025018133   -796.59153            0   -796.59113    13307.126 
     100  0.029988868   -796.59159            0    -796.5911     13307.49 
     101  0.035427742   -796.59166            0   -796.59108    13307.913 
     102  0.041303471   -796.59173            0   -796.59105    13308.368 
     103  0.047605818    -796.5918            0   -796.59102    13308.857 
     104  0.054327481   -796.59188            0   -796.59099    13309.378 
     105  0.061460693   -796.59196            0   -796.59096    13309.932 
     106  0.068997131   -796.59205            0   -796.59093    13310.517 
     107  0.076927939   -796.59215            0   -796.59089    13311.133 
     108  0.085243721   -796.59224            0   -796.59086    13311.778 
     109  0.093934523   -796.59235            0   -796.59082    13312.453 
     110   0.10298987   -796.59245            0   -796.59078    13313.157 
     111   0.11239873   -796.59257            0   -796.59074    13313.887 
     112   0.12214951   -796.59268            0   -796.59069    13314.644 
     113   0.13223012    -796.5928            0   -796.59065    13315.424 
     114   0.14262723   -796.59293            0    -796.5906    13316.227 
     115   0.15332857   -796.59305            0   -796.59056    13317.053 
     116   0.16432024   -796.59318            0   -796.59051      13317.9 
     117   0.17558845   -796.59332            0   -796.59046     13318.77 
     118   0.18711859   -796.59346            0   -796.59041     13319.66 
     119   0.19889527    -796.5936            0   -796.59036    13320.569 
     120   0.21090244   -796.59374            0   -796.59031    13321.497 
     121    0.2231241   -796.59389            0   -796.59025    13322.443 
     122   0.23554342   -796.59404            0    -796.5902    13323.404 
     123   0.24814218   -796.59419            0   -796.59015    13324.382 
     124    0.2609064   -796.59434            0   -796.59009    13325.367 
     125   0.27380355    -796.5945            0   -796.59004    13326.376 
     126   0.28686062   -796.59466            0   -796.58999    13327.365 
     127   0.29994754   -796.59482            0   -796.58993    13328.459 
     128   0.31368439   -796.59498            0   -796.58987    13329.276 
     129   0.32888816   -796.59514            0   -796.58979    13331.077 
     130   0.37430649   -796.59528            0   -796.58919    13330.105 
     131   0.48087549   -796.59533            0    -796.5875    13338.109 
     132  0.039609913   -796.59541            0   -796.59476    13330.334 
     133  0.028514459   -796.59545            0   -796.59499    13328.841 
     134  0.015223084   -796.59548            0   -796.59524    13328.231 
     135  0.014175201   -796.59552            0   -796.59528     13328.27 
     136  0.016478726   -796.59555            0   -796.59528    13328.478 
     137  0.019176493   -796.59559            0   -796.59527    13328.714 
     138  0.022073612   -796.59563            0   -796.59527    13328.963 
     139  0.025160155   -796.59567            0   -796.59526    13329.225 
     140  0.028432068   -796.59571            0   -796.59525    13329.502 
     141  0.031885233   -796.59576            0   -796.59524    13329.795 
     142  0.035515227   -796.59581            0   -796.59523    13330.104 
     143   0.03931732   -796.59586            0   -796.59522    13330.428 
     144  0.043286539   -796.59592            0   -796.59521    13330.767 
     145  0.047417652   -796.59597            0    -796.5952    13331.121 
     146  0.051705186   -796.59603            0   -796.59519     13331.49 
     147  0.056143418    -796.5961            0   -796.59518    13331.873 
     148  0.060726377   -796.59616            0   -796.59517    13332.269 
     149  0.065447853   -796.59623            0   -796.59516    13332.679 
     150  0.070301395   -796.59629            0   -796.59515    13333.103 
     151  0.075280329   -796.59636            0   -796.59514    13333.538 
     152  0.080377734   -796.59644            0   -796.59513    13333.987 
     153  0.085586514   -796.59651            0   -796.59512    13334.447 
     154    0.0908993   -796.59659            0   -796.59511    13334.918 
     155  0.096308514   -796.59667            0    -796.5951    13335.401 
     156   0.10180638   -796.59675            0   -796.59509     13335.89 
     157   0.10738627   -796.59683            0   -796.59508    13336.387 
     158   0.11303968   -796.59691            0   -796.59507    13336.893 
     159    0.1187568     -796.597            0   -796.59506    13337.409 
     160    0.1245312   -796.59708            0   -796.59505    13337.934 
     161   0.13034948   -796.59717            0   -796.59505    13338.465 
     162   0.13621363   -796.59726            0   -796.59504    13339.005 
     163   0.14208531   -796.59735            0   -796.59503    13339.552 
     164   0.14802232   -796.59744            0   -796.59503    13340.104 
     165   0.15368136   -796.59753            0   -796.59503    13340.674 
     166   0.15839496   -796.59762            0   -796.59504    13341.169 
     167   0.14388036   -796.59771            0   -796.59537    13341.652 
     168  0.042752276   -796.59775            0   -796.59706    13340.117 
     169 0.00071195271   -796.59776            0   -796.59775    13339.644 
     170 0.0011844313   -796.59776            0   -796.59774     13339.75 
     171 0.0018579307   -796.59777            0   -796.59774    13339.862 
     172 0.0026614601   -796.59778            0   -796.59774    13339.967 
     173 0.0034957245    -796.5978            0   -796.59774    13340.061 
     174 0.0043706199   -796.59781            0   -796.59774    13340.153 
     175 0.0053205734   -796.59783            0   -796.59774    13340.249 
     176 0.0063562842   -796.59784            0   -796.59774    13340.353 
     177 0.0074785512   -796.59786            0   -796.59774    13340.466 
     178 0.0086864761   -796.59788            0   -796.59774    13340.588 
     179 0.0099786892    -796.5979            0   -796.59774    13340.719 
     180  0.011353519   -796.59793            0   -796.59774     13340.86 
     181  0.012809114   -796.59795            0   -796.59774    13341.009 
     182  0.014343488   -796.59798            0   -796.59774    13341.167 
     183  0.015954538     -796.598            0   -796.59774    13341.334 
     184  0.017640043   -796.59803            0   -796.59775    13341.509 
     185  0.019397669   -796.59806            0   -796.59775    13341.692 
     186  0.021224967   -796.59809            0   -796.59775    13341.884 
     187  0.023119384   -796.59813            0   -796.59775    13342.084 
     188  0.025078249   -796.59816            0   -796.59775    13342.292 
     189  0.027098792    -796.5982            0   -796.59776    13342.508 
     190  0.029178151   -796.59823            0   -796.59776    13342.732 
     191  0.031313349   -796.59827            0   -796.59776    13342.963 
     192  0.033501318   -796.59831            0   -796.59777    13343.201 
     193    0.0357389   -796.59835            0   -796.59777    13343.446 
     194  0.038022841   -796.59839            0   -796.59777    13343.699 
     195  0.040349817   -796.59843            0   -796.59778    13343.958 
     196  0.042716382   -796.59848            0   -796.59778    13344.224 
     197  0.045119081   -796.59852            0   -796.59779    13344.497 
     198   0.04755429   -796.59857            0   -796.59779    13344.776 
     199  0.050018494   -796.59861            0    -796.5978     13345.06 
     200  0.052507674   -796.59866            0   -796.59781    13345.351 
     201  0.055018842   -796.59871            0   -796.59781    13345.647 
     202  0.057546042   -796.59876            0   -796.59782    13345.951 
     203  0.060091235   -796.59881            0   -796.59783    13346.252 
     204  0.062630522   -796.59886            0   -796.59784    13346.583 
     205  0.065200397   -796.59891            0   -796.59785    13346.838 
     206  0.067410809   -796.59896            0   -796.59786    13347.368 
     207  0.067692586   -796.59901            0   -796.59791      13346.9 
     208  0.044700529   -796.59905            0   -796.59832    13348.901 
     209 0.0025546041   -796.59906            0   -796.59901    13347.497 
     210  0.002907704   -796.59907            0   -796.59902    13347.026 
     211 0.0031485107   -796.59908            0   -796.59902    13346.995 
     212 0.0036719482   -796.59909            0   -796.59903    13347.063 
     213 0.0042539522    -796.5991            0   -796.59903    13347.139 
     214 0.0048761926   -796.59911            0   -796.59903    13347.221 
     215 0.0055373616   -796.59913            0   -796.59904    13347.308 
     216 0.0062365712   -796.59914            0   -796.59904      13347.4 
     217 0.0069728323   -796.59916            0   -796.59904    13347.498 
     218 0.0077451182   -796.59917            0   -796.59905    13347.601 
     219 0.0085523318   -796.59919            0   -796.59905     13347.71 
     220 0.0093933291   -796.59921            0   -796.59906    13347.823 
     221  0.010266913   -796.59923            0   -796.59906    13347.942 
     222  0.011171836   -796.59925            0   -796.59907    13348.066 
     223  0.012106801   -796.59927            0   -796.59907    13348.195 
     224  0.013070463   -796.59929            0   -796.59908    13348.329 
     225   0.01406143   -796.59931            0   -796.59908    13348.468 
     226  0.015078266   -796.59933            0   -796.59909    13348.611 
     227  0.016119494   -796.59936            0   -796.59909    13348.759 
     228  0.017183595   -796.59938            0    -796.5991    13348.912 
     229   0.01826901   -796.59941            0   -796.59911    13349.069 
     230  0.019374147   -796.59943            0   -796.59912     13349.23 
     231   0.02049737   -796.59946            0   -796.59912    13349.396 
     232  0.021637034   -796.59948            0   -796.59913    13349.566 
     233  0.022791405   -796.59951            0   -796.59914     13349.74 
     234  0.023958856   -796.59954            0   -796.59915    13349.917 
     235  0.025137416   -796.59957            0   -796.59916    13350.099 
     236  0.026325919   -796.59959            0   -796.59917    13350.283 
     237  0.027520898   -796.59962            0   -796.59918    13350.474 
     238  0.028725288   -796.59965            0   -796.59919    13350.659 
     239  0.029922022   -796.59968            0    -796.5992    13350.878 
     240  0.031150837   -796.59971            0   -796.59921    13350.997 
     241   0.03219779   -796.59974            0   -796.59922    13351.468 
     242  0.032966062   -796.59977            0   -796.59924     13350.73 
     243  0.023271213   -796.59979            0   -796.59941    13352.775 
     244 0.00074027538   -796.59979            0   -796.59978    13352.078 
     245 0.00086132092    -796.5998            0   -796.59978    13351.691 
     246 0.00087503738    -796.5998            0   -796.59979    13351.408 
     247 0.00090513902    -796.5998            0   -796.59979     13351.28 
     248 0.0010535033   -796.59981            0   -796.59979     13351.26 
     249 0.0012643435   -796.59982            0   -796.59979    13351.285 
     250 0.0015020903   -796.59982            0    -796.5998    13351.324 
     251 0.0017601917   -796.59983            0    -796.5998    13351.368 
     252 0.0020375911   -796.59983            0    -796.5998    13351.415 
     253 0.0023338182   -796.59984            0    -796.5998    13351.467 
     254 0.0026484558   -796.59985            0   -796.59981    13351.521 
     255 0.0029810635   -796.59986            0   -796.59981    13351.579 
     256 0.0033311732   -796.59987            0   -796.59981     13351.64 
     257 0.0036982908   -796.59988            0   -796.59982    13351.705 
     258 0.0040818956   -796.59989            0   -796.59982    13351.773 
     259 0.0044814428    -796.5999            0   -796.59983    13351.844 
     260 0.0048963632   -796.59991            0   -796.59983    13351.918 
     261 0.0053260639   -796.59992            0   -796.59983    13351.995 
     262  0.005769929   -796.59993            0   -796.59984    13352.076 
     263 0.0062273208   -796.59995            0   -796.59984     13352.16 
     264 0.0066975807   -796.59996            0   -796.59985    13352.246 
     265 0.0071800294   -796.59997            0   -796.59985    13352.336 
     266 0.0076739687   -796.59999            0   -796.59986    13352.428 
     267  0.008178682       -796.6            0   -796.59987    13352.524 
     268 0.0086934354   -796.60001            0   -796.59987    13352.622 
     269 0.0092174786   -796.60003            0   -796.59988    13352.723 
     270 0.0097500456   -796.60004            0   -796.59988    13352.826 
     271  0.010290357   -796.60006            0   -796.59989    13352.932 
     272  0.010837619   -796.60007            0    -796.5999     13353.04 
     273  0.011391086   -796.60009            0    -796.5999    13353.149 
     274  0.011949921   -796.60011            0   -796.59991     13353.26 
     275  0.012513321   -796.60012            0   -796.59992    13353.374 
     276   0.01308033   -796.60014            0   -796.59993     13353.49 
     277  0.013650373   -796.60015            0   -796.59993    13353.608 
     278   0.01422186   -796.60017            0   -796.59994    13353.728 
     279  0.014795222   -796.60019            0   -796.59995    13353.847 
     280  0.015358412   -796.60021            0   -796.59996     13353.98 
     281  0.015853342   -796.60022            0   -796.59997    13354.073 
     282  0.015306229   -796.60024            0   -796.59999    13354.289 
     283 0.0071967617   -796.60025            0   -796.60013    13353.995 
     284 9.4083805e-05   -796.60025            0   -796.60025    13353.959 
     285 0.00016232782   -796.60025            0   -796.60025    13354.021 
     286 0.00026552533   -796.60026            0   -796.60025    13354.078 
     287 0.00037504551   -796.60026            0   -796.60025    13354.118 
     288 0.00047360791   -796.60026            0   -796.60025    13354.147 
     289 0.00057458873   -796.60026            0   -796.60025    13354.171 
     290 0.00068386806   -796.60027            0   -796.60026    13354.195 
     291 0.00080207242   -796.60027            0   -796.60026    13354.222 
     292 0.00092910518   -796.60027            0   -796.60026     13354.25 
     293 0.0010648046   -796.60028            0   -796.60026     13354.28 
     294  0.001208986   -796.60028            0   -796.60026    13354.313 
     295 0.0013614496   -796.60029            0   -796.60027    13354.348 
     296  0.001521983   -796.60029            0   -796.60027    13354.384 
     297 0.0016903617    -796.6003            0   -796.60027    13354.423 
     298 0.0018663495    -796.6003            0   -796.60027    13354.463 
     299 0.0020496989   -796.60031            0   -796.60027    13354.506 
     300 0.0022401515   -796.60031            0   -796.60028     13354.55 
     301 0.0024374382   -796.60032            0   -796.60028    13354.596 
     302 0.0026412796   -796.60033            0   -796.60028    13354.645 
     303 0.0028513864   -796.60033            0   -796.60029    13354.695 
     304 0.0030674599   -796.60034            0   -796.60029    13354.746 
     305 0.0032891924   -796.60035            0   -796.60029      13354.8 
     306 0.0035162673   -796.60035            0    -796.6003    13354.855 
     307  0.003748361   -796.60036            0    -796.6003    13354.912 
     308 0.0039851398   -796.60037            0    -796.6003     13354.97 
     309 0.0042262635   -796.60038            0   -796.60031     13355.03 
     310 0.0044713856   -796.60038            0   -796.60031    13355.092 
     311 0.0047201542   -796.60039            0   -796.60031    13355.154 
     312 0.0049722104    -796.6004            0   -796.60032    13355.219 
     313 0.0052271901   -796.60041            0   -796.60032    13355.285 
     314 0.0054847238   -796.60041            0   -796.60033    13355.352 
     315 0.0057444377   -796.60042            0   -796.60033     13355.42 
     316 0.0060059537   -796.60043            0   -796.60033     13355.49 
     317 0.0062688938   -796.60044            0   -796.60034     13355.56 
     318  0.006532868   -796.60045            0   -796.60034    13355.632 
     319 0.0067974822   -796.60046            0   -796.60035    13355.705 
     320  0.007062204   -796.60046            0   -796.60035    13355.778 
     321 0.0073245623   -796.60047            0   -796.60035    13355.856 
     322 0.0075599871   -796.60048            0   -796.60036    13355.917 
     323 0.0074115425   -796.60049            0   -796.60037    13356.041 
     324 0.0038740138   -796.60049            0   -796.60043    13355.887 
     325 4.097944e-05   -796.60049            0   -796.60049    13355.867 
     326 6.5229668e-05    -796.6005            0   -796.60049    13355.902 
     327 0.00010096707    -796.6005            0   -796.60049    13355.936 
     328 0.00014436736    -796.6005            0   -796.60049    13355.963 
     329 0.00018656646    -796.6005            0   -796.60049    13355.981 
     330 0.00022950217    -796.6005            0    -796.6005    13355.995 
     331 0.0002759688    -796.6005            0    -796.6005    13356.008 
     332 0.00032646464    -796.6005            0    -796.6005    13356.022 
     333 0.00038097176    -796.6005            0    -796.6005    13356.038 
     334 0.00043941872   -796.60051            0    -796.6005    13356.055 
     335 0.00050172536   -796.60051            0    -796.6005    13356.073 
     336 0.0005678064   -796.60051            0    -796.6005    13356.092 
     337 0.0006375713   -796.60051            0    -796.6005    13356.112 
     338 0.00071092412   -796.60051            0    -796.6005    13356.134 
     339 0.00078776371   -796.60052            0    -796.6005    13356.156 
     340 0.00086798384   -796.60052            0    -796.6005     13356.18 
     341 0.0009514733   -796.60052            0    -796.6005    13356.205 
     342 0.0010381161   -796.60052            0   -796.60051    13356.231 
     343 0.0011277919   -796.60053            0   -796.60051    13356.257 
     344 0.0012203754   -796.60053            0   -796.60051    13356.285 
     345 0.0013157377   -796.60053            0   -796.60051    13356.314 
     346 0.0014137446   -796.60053            0   -796.60051    13356.344 
     347 0.0015142587   -796.60054            0   -796.60051    13356.375 
     348 0.0016171387   -796.60054            0   -796.60051    13356.406 
     349 0.0017222396   -796.60054            0   -796.60051    13356.439 
     350 0.0018294131   -796.60055            0   -796.60052    13356.472 
     351 0.0019385078   -796.60055            0   -796.60052    13356.507 
     352  0.002049369   -796.60055            0   -796.60052    13356.542 
     353 0.0021618399   -796.60055            0   -796.60052    13356.577 
     354 0.0022757602   -796.60056            0   -796.60052    13356.614 
     355 0.0023909674   -796.60056            0   -796.60052    13356.651 
     356 0.0025072974   -796.60056            0   -796.60052    13356.689 
     357 0.0026245829   -796.60057            0   -796.60052    13356.727 
     358 0.0027426568   -796.60057            0   -796.60052    13356.766 
     359 0.0028613431   -796.60057            0   -796.60052    13356.806 
     360  0.002980468   -796.60057            0   -796.60053    13356.846 
     361 0.0030996601   -796.60058            0   -796.60053    13356.886 
     362 0.0032170552   -796.60058            0   -796.60053    13356.927 
     363 0.0033092298   -796.60058            0   -796.60053    13356.969 
     364 0.0030883698   -796.60058            0   -796.60053    13356.999 
     365 0.0010255279   -796.60059            0   -796.60057    13356.999 
     366 9.5681728e-06   -796.60059            0   -796.60059    13356.986 
     367 1.6734887e-05   -796.60059            0   -796.60059    13356.988 
     368 2.7632939e-05   -796.60059            0   -796.60059     13356.99 
     369 4.2607823e-05   -796.60059            0   -796.60059    13356.993 
     370 5.9707451e-05   -796.60059            0   -796.60059    13356.998 
     371 7.7425993e-05   -796.60059            0   -796.60059    13357.003 
     372 9.6339943e-05   -796.60059            0   -796.60059    13357.009 
     373 0.00011703561   -796.60059            0   -796.60059    13357.016 
     374 0.0001396432   -796.60059            0   -796.60059    13357.024 
     375 0.0001641503   -796.60059            0   -796.60059    13357.032 
     376 0.0001905248   -796.60059            0   -796.60059    13357.041 
     377 0.00021873128   -796.60059            0   -796.60059    13357.051 
     378 0.00024873186   -796.60059            0   -796.60059    13357.061 
     379 0.00028048608   -796.60059            0   -796.60059    13357.072 
     380 0.00031395097   -796.60059            0   -796.60058    13357.084 
     381 0.0003490811   -796.60059            0   -796.60058    13357.096 
     382 0.00038582862   -796.60059            0   -796.60058    13357.109 
     383 0.00042414335   -796.60059            0   -796.60058    13357.122 
     384 0.00046397284   -796.60059            0   -796.60058    13357.136 
     385 0.00050526243   -796.60059            0   -796.60058    13357.151 
     386 0.0005479553   -796.60059            0   -796.60058    13357.166 
     387 0.0005919926   -796.60059            0   -796.60058    13357.181 
     388 0.00063731348   -796.60059            0   -796.60058    13357.198 
     389 0.00068385518   -796.60059            0   -796.60058    13357.214 
     390 0.00073155312    -796.6006            0   -796.60058    13357.231 
     391 0.00078034091    -796.6006            0   -796.60058    13357.249 
     392 0.00083015054    -796.6006            0   -796.60058    13357.267 
     393 0.0008809124    -796.6006            0   -796.60058    13357.285 
     394 0.00093255544    -796.6006            0   -796.60058    13357.304 
     395 0.00098500721    -796.6006            0   -796.60058    13357.323 
     396 0.0010381937    -796.6006            0   -796.60058    13357.343 
     397 0.0010920398    -796.6006            0   -796.60058    13357.363 
     398 0.0011464692    -796.6006            0   -796.60058    13357.383 
     399 0.0012014049    -796.6006            0   -796.60058    13357.403 
     400 0.0012567673    -796.6006            0   -796.60058    13357.424 
     401 0.0013124804    -796.6006            0   -796.60058    13357.445 
     402 0.0013684536    -796.6006            0   -796.60057    13357.466 
     403 0.0014246189    -796.6006            0   -796.60057    13357.487 
     404 0.0014806711    -796.6006            0   -796.60057    13357.511 
     405 0.0015350357    -796.6006            0   -796.60057    13357.523 
     406 0.0015640309   -796.60059            0   -796.60057    13357.577 
     407 0.0013014718   -796.60059            0   -796.60057    13357.479 
     408 0.00018605717   -796.60059            0   -796.60059    13357.581 
     409 5.8998219e-05   -796.60059            0   -796.60059    13357.561 
     410 6.8124818e-05   -796.60059            0   -796.60059    13357.562 
     411 8.0013345e-05   -796.60059            0   -796.60059    13357.566 
     412 9.2858641e-05   -796.60059            0   -796.60059    13357.571 
     413 0.0001065967   -796.60059            0   -796.60059    13357.576 
     414 0.00012120875   -796.60059            0   -796.60059    13357.581 
     415 0.00013667534   -796.60059            0   -796.60059    13357.587 
     416 0.00015297572   -796.60059            0   -796.60059    13357.593 
     417 0.00017008801   -796.60059            0   -796.60059    13357.599 
     418 0.00018798913   -796.60059            0   -796.60059    13357.606 
     419 0.00020665487   -796.60059            0   -796.60059    13357.613 
     420 0.00022605993   -796.60059            0   -796.60059     13357.62 
     421 0.00024617789   -796.60059            0   -796.60058    13357.628 
     422 0.00026698141   -796.60059            0   -796.60058    13357.636 
     423 0.00028844197   -796.60059            0   -796.60058    13357.644 
     424 0.00031053015   -796.60059            0   -796.60058    13357.652 
     425 0.00033321609   -796.60059            0   -796.60058     13357.66 
     426 0.00035646842   -796.60058            0   -796.60058    13357.669 
     427 0.00038025468   -796.60058            0   -796.60058    13357.678 
     428 0.00040454189   -796.60058            0   -796.60058    13357.687 
     429 0.00042929633   -796.60058            0   -796.60057    13357.696 
     430 0.00045448339   -796.60058            0   -796.60057    13357.705 
     431  0.000480068   -796.60058            0   -796.60057    13357.715 
     432 0.00050601387   -796.60058            0   -796.60057    13357.724 
     433 0.00053228518   -796.60058            0   -796.60057    13357.734 
     434 0.00055884302   -796.60058            0   -796.60057    13357.744 
     435 0.00058565405   -796.60057            0   -796.60056    13357.753 
     436 0.0006126702   -796.60057            0   -796.60056    13357.764 
     437 0.00063989242   -796.60057            0   -796.60056    13357.771 
     438 0.00066729273   -796.60057            0   -796.60056    13357.789 
     439 0.00069614597   -796.60057            0   -796.60055    13357.774 
     440 0.00073778224   -796.60056            0   -796.60055    13357.866 
     441 0.00092443774   -796.60056            0   -796.60055    13357.611 
     442 0.0011143139   -796.60056            0   -796.60054    13358.099 
     443 3.2018603e-05   -796.60056            0   -796.60056    13358.011 
     444 3.5027267e-05   -796.60056            0   -796.60056    13357.934 
     445 2.939227e-05   -796.60056            0   -796.60056    13357.871 
     446 2.2197461e-05   -796.60056            0   -796.60056    13357.834 
     447 2.1569567e-05   -796.60056            0   -796.60056    13357.818 
     448 2.5354323e-05   -796.60056            0   -796.60056    13357.815 
     449 3.0528915e-05   -796.60056            0   -796.60056    13357.815 
     450 3.6282968e-05   -796.60056            0   -796.60056    13357.817 
     451 4.2515174e-05   -796.60056            0   -796.60056    13357.819 
     452 4.9212487e-05   -796.60056            0   -796.60056    13357.821 
     453 5.6365953e-05   -796.60056            0   -796.60056    13357.824 
     454 6.3966112e-05   -796.60056            0   -796.60055    13357.826 
     455 7.2002881e-05   -796.60055            0   -796.60055    13357.829 
     456 8.0465556e-05   -796.60055            0   -796.60055    13357.832 
     457 8.9342822e-05   -796.60055            0   -796.60055    13357.835 
     458 9.862277e-05   -796.60055            0   -796.60055    13357.838 
     459 0.00010829291   -796.60055            0   -796.60055    13357.841 
     460 0.00011834017   -796.60055            0   -796.60055    13357.844 
     461 0.00012875096   -796.60055            0   -796.60055    13357.848 
     462 0.0001395111   -796.60055            0   -796.60055    13357.851 
     463 0.00015060594   -796.60055            0   -796.60054    13357.855 
     464 0.00016202029   -796.60054            0   -796.60054    13357.858 
     465 0.00017373849   -796.60054            0   -796.60054    13357.862 
     466 0.00018574441   -796.60054            0   -796.60054    13357.866 
     467 0.00019802145   -796.60054            0   -796.60054     13357.87 
     468 0.0002105526   -796.60054            0   -796.60053    13357.873 
     469 0.00022332042   -796.60054            0   -796.60053    13357.877 
     470 0.00023630706   -796.60053            0   -796.60053    13357.881 
     471 0.00024949432   -796.60053            0   -796.60053    13357.885 
     472 0.00026286361   -796.60053            0   -796.60053    13357.889 
     473  0.000276396   -796.60053            0   -796.60052    13357.893 
     474 0.00029007228   -796.60053            0   -796.60052    13357.897 
     475 0.00030387271   -796.60052            0   -796.60052    13357.901 
     476 0.00031777785   -796.60052            0   -796.60052    13357.905 
     477 0.00033176478   -796.60052            0   -796.60051    13357.908 
     478 0.00034580757   -796.60052            0   -796.60051    13357.912 
     479 0.00035974389   -796.60051            0   -796.60051    13357.916 
     480 0.00037213894   -796.60051            0    -796.6005    13357.917 
     481 0.0003639625   -796.60051            0    -796.6005    13357.929 
     482 0.00018920594   -796.60051            0    -796.6005    13357.904 
     483 3.4517957e-06   -796.60051            0   -796.60051    13357.909 
     484 6.2180792e-06    -796.6005            0    -796.6005    13357.915 
     485 9.7983661e-06    -796.6005            0    -796.6005    13357.919 
     486 1.2691881e-05    -796.6005            0    -796.6005     13357.92 
     487 1.5423141e-05    -796.6005            0    -796.6005    13357.921 
     488 1.8367867e-05    -796.6005            0    -796.6005    13357.922 
     489 2.1556158e-05    -796.6005            0    -796.6005    13357.922 
     490 2.4984899e-05    -796.6005            0    -796.6005    13357.923 
     491 2.8649638e-05    -796.6005            0    -796.6005    13357.924 
     492 3.2545547e-05    -796.6005            0    -796.6005    13357.924 
     493 3.6667474e-05    -796.6005            0    -796.6005    13357.925 
     494 4.100994e-05    -796.6005            0    -796.6005    13357.926 
     495 4.5567155e-05    -796.6005            0    -796.6005    13357.927 
     496 5.0333014e-05   -796.60049            0   -796.60049    13357.928 
     497 5.5301111e-05   -796.60049            0   -796.60049    13357.928 
     498 6.0464745e-05   -796.60049            0   -796.60049    13357.929 
     499 6.5816923e-05   -796.60049            0   -796.60049     13357.93 
     500 7.1350374e-05   -796.60049            0   -796.60049    13357.931 
     501 7.7057553e-05   -796.60049            0   -796.60049    13357.932 
     502 8.2930648e-05   -796.60049            0   -796.60048    13357.933 
     503 8.8961594e-05   -796.60048            0   -796.60048    13357.934 
     504 9.5142074e-05   -796.60048            0   -796.60048    13357.934 
     505 0.00010146353   -796.60048            0   -796.60048    13357.935 
     506 0.00010791719   -796.60048            0   -796.60048    13357.936 
     507 0.00011449403   -796.60048            0   -796.60047    13357.937 
     508 0.00012118484   -796.60047            0   -796.60047    13357.937 
     509 0.0001279802   -796.60047            0   -796.60047    13357.938 
     510 0.00013487048   -796.60047            0   -796.60047    13357.939 
     511 0.0001418459   -796.60047            0   -796.60047    13357.939 
     512 0.00014889641   -796.60046            0   -796.60046    13357.939 
     513 0.00015601206   -796.60046            0   -796.60046     13357.94 
     514 0.00016318196   -796.60046            0   -796.60046     13357.94 
     515 0.00017039727   -796.60046            0   -796.60045     13357.94 
     516 0.00017764052   -796.60045            0   -796.60045     13357.94 
     517 0.00018490589   -796.60045            0   -796.60045    13357.939 
     518 0.00019192655   -796.60045            0   -796.60044    13357.942 
     519 0.00019636373   -796.60044            0   -796.60044    13357.929 
     520 0.00016449851   -796.60044            0   -796.60044    13357.972 
     521 2.3191604e-05   -796.60044            0   -796.60044    13357.926 
     522   6.7168e-06   -796.60044            0   -796.60044    13357.934 
     523 7.9764816e-06   -796.60044            0   -796.60044    13357.936 
     524 9.5028443e-06   -796.60044            0   -796.60044    13357.935 
     525 1.1162705e-05   -796.60044            0   -796.60044    13357.935 
     526 1.2948417e-05   -796.60044            0   -796.60044    13357.935 
     527 1.4857802e-05   -796.60044            0   -796.60044    13357.935 
     528 1.6888328e-05   -796.60044            0   -796.60043    13357.935 
     529 1.9037314e-05   -796.60043            0   -796.60043    13357.934 
     530 2.1301904e-05   -796.60043            0   -796.60043    13357.934 
     531 2.3679074e-05   -796.60043            0   -796.60043    13357.934 
     532 2.6165639e-05   -796.60043            0   -796.60043    13357.933 
     533 2.8758254e-05   -796.60043            0   -796.60043    13357.933 
     534 3.1453416e-05   -796.60043            0   -796.60043    13357.932 
     535 3.4247472e-05   -796.60043            0   -796.60043    13357.932 
     536 3.7136617e-05   -796.60042            0   -796.60042    13357.931 
     537 4.0116906e-05   -796.60042            0   -796.60042    13357.931 
     538 4.318425e-05   -796.60042            0   -796.60042     13357.93 
     539 4.6334425e-05   -796.60042            0   -796.60042    13357.929 
     540 4.9563075e-05   -796.60042            0   -796.60042    13357.928 
     541 5.286572e-05   -796.60042            0   -796.60042    13357.928 
     542 5.6237749e-05   -796.60041            0   -796.60041    13357.927 
     543 5.9674451e-05   -796.60041            0   -796.60041    13357.926 
     544 6.3170962e-05   -796.60041            0   -796.60041    13357.925 
     545  6.67224e-05   -796.60041            0   -796.60041    13357.923 
     546 7.0323565e-05   -796.60041            0    -796.6004    13357.922 
     547 7.3969697e-05    -796.6004            0    -796.6004    13357.921 
     548 7.7654479e-05    -796.6004            0    -796.6004    13357.919 
     549 8.1375534e-05    -796.6004            0    -796.6004    13357.918 
     550 8.5117151e-05   -796.60039            0   -796.60039    13357.916 
     551 8.8893742e-05   -796.60039            0   -796.60039    13357.913 
     552 9.2494401e-05   -796.60039            0   -796.60039    13357.917 
     553 9.501304e-05   -796.60039            0   -796.60038    13357.893 
     554 8.0932971e-05   -796.60038            0   -796.60038    13357.956 
     555 1.099554e-05   -796.60038            0   -796.60038    13357.915 
     556 6.0434781e-06   -796.60038            0   -796.60038    13357.906 
     557  6.64196e-06   -796.60038            0   -796.60038    13357.906 
     558 7.684931e-06   -796.60038            0   -796.60038    13357.905 
     559 8.8007564e-06   -796.60038            0   -796.60038    13357.905 
     560 9.9872037e-06   -796.60038            0   -796.60038    13357.904 
     561 1.124151e-05   -796.60038            0   -796.60038    13357.903 
     562 1.2562443e-05   -796.60038            0   -796.60038    13357.902 
     563 1.3947972e-05   -796.60038            0   -796.60038    13357.901 
     564 1.5396421e-05   -796.60037            0   -796.60037      13357.9 
     565 1.6905681e-05   -796.60037            0   -796.60037    13357.899 
     566 1.8473861e-05   -796.60037            0   -796.60037    13357.898 
     567 2.0098664e-05   -796.60037            0   -796.60037    13357.897 
     568 2.1778076e-05   -796.60037            0   -796.60037    13357.896 
     569 2.3509526e-05   -796.60037            0   -796.60037    13357.894 
     570 2.5291033e-05   -796.60037            0   -796.60037    13357.893 
     571 2.7119494e-05   -796.60036            0   -796.60036    13357.892 
     572 2.8993488e-05   -796.60036            0   -796.60036     13357.89 
     573 3.0908309e-05   -796.60036            0   -796.60036    13357.889 
     574 3.2865402e-05   -796.60036            0   -796.60036    13357.887 
     575 3.4852932e-05   -796.60036            0   -796.60036    13357.885 
     576 3.6887557e-05   -796.60035            0   -796.60035    13357.882 
     577 3.8914658e-05   -796.60035            0   -796.60035    13357.884 
     578 4.1044313e-05   -796.60035            0   -796.60035    13357.872 
     579 4.2868025e-05   -796.60035            0   -796.60035    13357.896 
     580 4.1976072e-05   -796.60035            0   -796.60035    13357.836 
     581 1.4698084e-05   -796.60035            0   -796.60035    13357.883 
     582 4.1303961e-06   -796.60034            0   -796.60034    13357.872 
     583 4.3272442e-06   -796.60034            0   -796.60034    13357.873 
     584 5.0227967e-06   -796.60034            0   -796.60034    13357.872 
     585 5.7690734e-06   -796.60034            0   -796.60034    13357.871 
     586 6.563891e-06   -796.60034            0   -796.60034     13357.87 
     587 7.4052657e-06   -796.60034            0   -796.60034    13357.869 
     588 8.2924106e-06   -796.60034            0   -796.60034    13357.868 
     589 9.2239414e-06   -796.60034            0   -796.60034    13357.867 
     590 1.0198748e-05   -796.60034            0   -796.60034    13357.866 
     591 1.1215402e-05   -796.60034            0   -796.60034    13357.865 
     592 1.227264e-05   -796.60033            0   -796.60033    13357.863 
     593 1.3368906e-05   -796.60033            0   -796.60033    13357.862 
     594 1.4502857e-05   -796.60033            0   -796.60033     13357.86 
     595 1.5672737e-05   -796.60033            0   -796.60033    13357.859 
     596 1.6877249e-05   -796.60033            0   -796.60033    13357.857 
     597 1.8114234e-05   -796.60033            0   -796.60033    13357.856 
     598 1.938285e-05   -796.60033            0   -796.60033    13357.854 
     599 2.0679698e-05   -796.60032            0   -796.60032    13357.852 
     600 2.200624e-05   -796.60032            0   -796.60032     13357.85 
     601 2.3353497e-05   -796.60032            0   -796.60032    13357.848 
     602 2.4735674e-05   -796.60032            0   -796.60032    13357.845 
     603 2.611205e-05   -796.60032            0   -796.60032    13357.846 
     604 2.7590186e-05   -796.60031            0   -796.60031    13357.834 
     605 2.8904358e-05   -796.60031            0   -796.60031    13357.858 
     606 2.6997498e-05   -796.60031            0   -796.60031    13357.804 
     607 6.6126701e-06   -796.60031            0   -796.60031    13357.835 
     608 2.4994327e-06   -796.60031            0   -796.60031    13357.836 
     609 2.9379368e-06   -796.60031            0   -796.60031    13357.835 
     610 3.4166639e-06   -796.60031            0   -796.60031    13357.834 
     611 3.9295575e-06   -796.60031            0   -796.60031    13357.833 
     612 4.4755581e-06   -796.60031            0   -796.60031    13357.832 
     613 5.0540381e-06   -796.60031            0   -796.60031    13357.831 
     614 5.6641855e-06    -796.6003            0    -796.6003     13357.83 
     615 6.3052134e-06    -796.6003            0    -796.6003    13357.829 
     616 6.9762448e-06    -796.6003            0    -796.6003    13357.828 
     617 7.6763949e-06    -796.6003            0    -796.6003    13357.826 
     618 8.4047034e-06    -796.6003            0    -796.6003    13357.825 
     619 9.1602031e-06    -796.6003            0    -796.6003    13357.823 
     620 9.9418449e-06    -796.6003            0    -796.6003    13357.822 
     621 1.0748596e-05    -796.6003            0    -796.6003     13357.82 
     622 1.1579304e-05    -796.6003            0   -796.60029    13357.818 
     623 1.2432909e-05   -796.60029            0   -796.60029    13357.817 
     624 1.3308092e-05   -796.60029            0   -796.60029    13357.815 
     625 1.420392e-05   -796.60029            0   -796.60029    13357.813 
     626 1.5118579e-05   -796.60029            0   -796.60029    13357.811 
     627 1.6052033e-05   -796.60029            0   -796.60029    13357.808 
     628 1.7000016e-05   -796.60029            0   -796.60028    13357.807 
     629 1.7968131e-05   -796.60028            0   -796.60028    13357.803 
     630 1.893437e-05   -796.60028            0   -796.60028    13357.803 
     631 1.9937333e-05   -796.60028            0   -796.60028    13357.794 
     632 2.0700893e-05   -796.60028            0   -796.60028     13357.81 
     633 1.8874367e-05   -796.60028            0   -796.60028    13357.767 
     634 3.751504e-06   -796.60028            0   -796.60028    13357.791 
     635 1.6329638e-06   -796.60027            0   -796.60027    13357.793 
     636 1.8776155e-06   -796.60027            0   -796.60027    13357.792 
     637 2.1931621e-06   -796.60027            0   -796.60027    13357.792 
     638 2.5325989e-06   -796.60027            0   -796.60027    13357.791 
     639 2.8946356e-06   -796.60027            0   -796.60027     13357.79 
     640 3.2789282e-06   -796.60027            0   -796.60027    13357.789 
     641 3.6849051e-06   -796.60027            0   -796.60027    13357.788 
     642 4.1120653e-06   -796.60027            0   -796.60027    13357.786 
     643 4.559814e-06   -796.60027            0   -796.60027    13357.785 
     644 5.0275761e-06   -796.60027            0   -796.60027    13357.784 
     645 5.5147024e-06   -796.60027            0   -796.60027    13357.782 
     646 6.0205634e-06   -796.60027            0   -796.60027    13357.781 
     647 6.5444451e-06   -796.60026            0   -796.60026    13357.779 
     648 7.085683e-06   -796.60026            0   -796.60026    13357.778 
     649 7.6434749e-06   -796.60026            0   -796.60026    13357.776 
     650 8.2171728e-06   -796.60026            0   -796.60026    13357.774 
     651 8.8057923e-06   -796.60026            0   -796.60026    13357.772 
     652 9.4089065e-06   -796.60026            0   -796.60026     13357.77 
     653 1.0024866e-05   -796.60026            0   -796.60026    13357.768 
     654 1.0654441e-05   -796.60025            0   -796.60025    13357.766 
     655 1.1291856e-05   -796.60025            0   -796.60025    13357.764 
     656 1.1941326e-05   -796.60025            0   -796.60025    13357.761 
     657 1.2537757e-05   -796.60025            0   -796.60025    13357.762 
     658 1.285798e-05   -796.60025            0   -796.60025    13357.749 
     659 1.0539292e-05   -796.60025            0   -796.60025    13357.772 
     660 2.4642743e-06   -796.60025            0   -796.60025    13357.753 
     661 1.1392443e-06   -796.60025            0   -796.60025    13357.754 
     662 1.3393924e-06   -796.60024            0   -796.60024    13357.753 
     663 1.5629662e-06   -796.60024            0   -796.60024    13357.752 
     664 1.8030897e-06   -796.60024            0   -796.60024    13357.751 
     665 2.0590958e-06   -796.60024            0   -796.60024     13357.75 
     666 2.3307264e-06   -796.60024            0   -796.60024    13357.749 
     667 2.6175848e-06   -796.60024            0   -796.60024    13357.748 
     668 2.9193184e-06   -796.60024            0   -796.60024    13357.747 
     669 3.2355092e-06   -796.60024            0   -796.60024    13357.746 
     670 3.5657557e-06   -796.60024            0   -796.60024    13357.744 
     671 3.9096002e-06   -796.60024            0   -796.60024    13357.743 
     672 4.266606e-06   -796.60024            0   -796.60024    13357.741 
     673 4.6362668e-06   -796.60024            0   -796.60024     13357.74 
     674 5.0181282e-06   -796.60023            0   -796.60023    13357.738 
     675 5.4116104e-06   -796.60023            0   -796.60023    13357.737 
     676 5.8162941e-06   -796.60023            0   -796.60023    13357.735 
     677 6.2314159e-06   -796.60023            0   -796.60023    13357.733 
     678 6.6568014e-06   -796.60023            0   -796.60023    13357.731 
     679 7.0908272e-06   -796.60023            0   -796.60023    13357.729 
     680 7.5340709e-06   -796.60023            0   -796.60023    13357.727 
     681 7.9755523e-06   -796.60023            0   -796.60023    13357.726 
     682 8.3891717e-06   -796.60022            0   -796.60022    13357.721 
     683 8.4590877e-06   -796.60022            0   -796.60022    13357.725 
     684 6.5725717e-06   -796.60022            0   -796.60022     13357.71 
     685 1.4932604e-06   -796.60022            0   -796.60022     13357.72 
     686 7.7919187e-07   -796.60022            0   -796.60022    13357.717 
     687 8.9640396e-07   -796.60022            0   -796.60022    13357.717 
     688 1.0518923e-06   -796.60022            0   -796.60022    13357.716 
     689 1.2191848e-06   -796.60022            0   -796.60022    13357.715 
     690 1.3980751e-06   -796.60022            0   -796.60022    13357.714 
     691 1.5882497e-06   -796.60022            0   -796.60022    13357.713 
     692 1.7894939e-06   -796.60022            0   -796.60022    13357.712 
     693 2.0015255e-06   -796.60022            0   -796.60022    13357.711 
     694 2.2240825e-06   -796.60021            0   -796.60021     13357.71 
     695 2.4568599e-06   -796.60021            0   -796.60021    13357.709 
     696 2.6995653e-06   -796.60021            0   -796.60021    13357.707 
     697 2.9518631e-06   -796.60021            0   -796.60021    13357.706 
     698 3.2134404e-06   -796.60021            0   -796.60021    13357.705 
     699 3.4839211e-06   -796.60021            0   -796.60021    13357.703 
     700 3.7629915e-06   -796.60021            0   -796.60021    13357.702 
     701 4.0501992e-06   -796.60021            0   -796.60021      13357.7 
     702 4.3452966e-06   -796.60021            0   -796.60021    13357.698 
     703 4.6475545e-06   -796.60021            0   -796.60021    13357.697 
     704 4.9569507e-06    -796.6002            0    -796.6002    13357.695 
     705 5.2703498e-06    -796.6002            0    -796.6002    13357.693 
     706 5.5823688e-06    -796.6002            0    -796.6002     13357.69 
     707 5.8263043e-06    -796.6002            0    -796.6002     13357.69 
     708 5.6200936e-06    -796.6002            0    -796.6002    13357.683 
     709 3.2491213e-06    -796.6002            0    -796.6002    13357.691 
     710 4.824458e-07    -796.6002            0    -796.6002    13357.685 
     711 5.2180049e-07    -796.6002            0    -796.6002    13357.684 
     712 6.2085756e-07    -796.6002            0    -796.6002    13357.684 
     713 7.3166508e-07    -796.6002            0    -796.6002    13357.683 
     714 8.5106667e-07    -796.6002            0    -796.6002    13357.682 
     715 9.789396e-07    -796.6002            0    -796.6002    13357.681 
     716 1.1151073e-06    -796.6002            0    -796.6002     13357.68 
     717 1.259401e-06   -796.60019            0   -796.60019    13357.679 
     718 1.4116319e-06   -796.60019            0   -796.60019    13357.678 
     719 1.5716062e-06   -796.60019            0   -796.60019    13357.677 
     720 1.7391147e-06   -796.60019            0   -796.60019    13357.676 
     721 1.9139424e-06   -796.60019            0   -796.60019    13357.675 
     722 2.0958595e-06   -796.60019            0   -796.60019    13357.674 
     723 2.2846324e-06   -796.60019            0   -796.60019    13357.672 
     724 2.4800096e-06   -796.60019            0   -796.60019    13357.671 
     725 2.6817433e-06   -796.60019            0   -796.60019     13357.67 
     726 2.8895559e-06   -796.60019            0   -796.60019    13357.668 
     727 3.1031978e-06   -796.60019            0   -796.60019    13357.667 
     728 3.3223378e-06   -796.60018            0   -796.60018    13357.665 
     729 3.5467717e-06   -796.60018            0   -796.60018    13357.663 
     730 3.7758793e-06   -796.60018            0   -796.60018    13357.661 
     731 4.0093131e-06   -796.60018            0   -796.60018     13357.66 
     732 4.241059e-06   -796.60018            0   -796.60018    13357.658 
     733 4.4414179e-06   -796.60018            0   -796.60018    13357.655 
     734 4.3327183e-06   -796.60018            0   -796.60018    13357.656 
     735 2.5869752e-06   -796.60018            0   -796.60018    13357.649 
     736 2.8356416e-07   -796.60018            0   -796.60018    13357.651 
     737 3.5983909e-07   -796.60018            0   -796.60018    13357.651 
     738 4.293602e-07   -796.60018            0   -796.60018    13357.651 
     739 5.0753922e-07   -796.60018            0   -796.60018     13357.65 
     740 5.9197428e-07   -796.60018            0   -796.60018     13357.65 
     741 6.8251347e-07   -796.60017            0   -796.60017    13357.649 
     742 7.7905077e-07   -796.60017            0   -796.60017    13357.648 
     743 8.8146077e-07   -796.60017            0   -796.60017    13357.647 
     744 9.8961606e-07   -796.60017            0   -796.60017    13357.646 
     745 1.1033778e-06   -796.60017            0   -796.60017    13357.645 
     746 1.2226027e-06   -796.60017            0   -796.60017    13357.644 
     747 1.3471372e-06   -796.60017            0   -796.60017    13357.643 
     748 1.4768237e-06   -796.60017            0   -796.60017    13357.642 
     749 1.6114941e-06   -796.60017            0   -796.60017    13357.641 
     750 1.7509786e-06   -796.60017            0   -796.60017    13357.639 
     751 1.8950931e-06   -796.60017            0   -796.60017    13357.638 
     752 2.0436604e-06   -796.60017            0   -796.60017    13357.637 
     753 2.1964722e-06   -796.60017            0   -796.60017    13357.635 
     754 2.3533596e-06   -796.60017            0   -796.60017    13357.634 
     755 2.5140294e-06   -796.60016            0   -796.60016    13357.632 
     756 2.6783086e-06   -796.60016            0   -796.60016    13357.631 
     757 2.8447917e-06   -796.60016            0   -796.60016    13357.629 
     758 3.0084898e-06   -796.60016            0   -796.60016    13357.627 
     759 3.1212153e-06   -796.60016            0   -796.60016    13357.626 
     760 2.8488159e-06   -796.60016            0   -796.60016    13357.622 
     761 1.1320254e-06   -796.60016            0   -796.60016    13357.625 
     762 1.2399218e-07   -796.60016            0   -796.60016    13357.623 
     763 1.8654172e-07   -796.60016            0   -796.60016    13357.622 
     764 2.3207789e-07   -796.60016            0   -796.60016    13357.622 
     765 2.8146341e-07   -796.60016            0   -796.60016    13357.621 
     766 3.3549848e-07   -796.60016            0   -796.60016    13357.621 
     767 3.9406351e-07   -796.60016            0   -796.60016     13357.62 
     768 4.5708696e-07   -796.60016            0   -796.60016    13357.619 
     769 5.2449116e-07   -796.60016            0   -796.60016    13357.619 
     770 5.9619278e-07   -796.60016            0   -796.60016    13357.618 
     771 6.7210282e-07   -796.60015            0   -796.60015    13357.617 
     772 7.5212676e-07   -796.60015            0   -796.60015    13357.616 
     773 8.3616471e-07   -796.60015            0   -796.60015    13357.615 
     774 9.241115e-07   -796.60015            0   -796.60015    13357.614 
     775 1.0158569e-06   -796.60015            0   -796.60015    13357.613 
     776 1.1112855e-06   -796.60015            0   -796.60015    13357.612 
     777 1.2102775e-06   -796.60015            0   -796.60015    13357.611 
     778 1.312708e-06   -796.60015            0   -796.60015     13357.61 
     779 1.418448e-06   -796.60015            0   -796.60015    13357.609 
     780 1.5273639e-06   -796.60015            0   -796.60015    13357.608 
     781 1.6393181e-06   -796.60015            0   -796.60015    13357.606 
     782 1.7541694e-06   -796.60015            0   -796.60015    13357.605 
     783 1.8717721e-06   -796.60015            0   -796.60015    13357.604 
     784 1.9919783e-06   -796.60015            0   -796.60015    13357.602 
     785 2.1146332e-06   -796.60014            0   -796.60014    13357.601 
     786 2.2395851e-06   -796.60014            0   -796.60014    13357.599 
     787 2.3666268e-06   -796.60014            0   -796.60014    13357.597 
     788 2.4953779e-06   -796.60014            0   -796.60014    13357.596 
     789 2.6225202e-06   -796.60014            0   -796.60014    13357.594 
     790 2.7146916e-06   -796.60014            0   -796.60014    13357.592 
     791 2.4008739e-06   -796.60014            0   -796.60014    13357.591 
     792 5.5224011e-07   -796.60014            0   -796.60014    13357.589 
     793 3.0776796e-08   -796.60014            0   -796.60014    13357.589 
     794 5.3432464e-08   -796.60014            0   -796.60014    13357.589 
     795 7.9667925e-08   -796.60014            0   -796.60014    13357.589 
     796 1.0550689e-07   -796.60014            0   -796.60014    13357.589 
     797 1.3326014e-07   -796.60014            0   -796.60014    13357.589 
     798 1.6403192e-07   -796.60014            0   -796.60014    13357.588 
     799 1.9789515e-07   -796.60014            0   -796.60014    13357.588 
     800 2.3481262e-07   -796.60014            0   -796.60014    13357.587 
     801 2.7474046e-07   -796.60014            0   -796.60014    13357.587 
     802 3.1763079e-07   -796.60014            0   -796.60014    13357.586 
     803 3.6343192e-07   -796.60013            0   -796.60013    13357.585 
     804 4.1208848e-07   -796.60013            0   -796.60013    13357.585 
     805 4.6354142e-07   -796.60013            0   -796.60013    13357.584 
     806 5.1772813e-07   -796.60013            0   -796.60013    13357.583 
     807 5.7458255e-07   -796.60013            0   -796.60013    13357.583 
     808 6.3403518e-07   -796.60013            0   -796.60013    13357.582 
     809 6.9601326e-07   -796.60013            0   -796.60013    13357.581 
     810 7.6044081e-07   -796.60013            0   -796.60013     13357.58 
     811 8.2723877e-07   -796.60013            0   -796.60013    13357.579 
     812 8.9632508e-07   -796.60013            0   -796.60013    13357.578 
     813 9.6761483e-07   -796.60013            0   -796.60013    13357.577 
     814 1.0410203e-06   -796.60013            0   -796.60013    13357.576 
     815 1.1164513e-06   -796.60013            0   -796.60013    13357.575 
     816 1.1938148e-06   -796.60013            0   -796.60013    13357.573 
     817 1.2730159e-06   -796.60013            0   -796.60013    13357.572 
     818 1.3539565e-06   -796.60013            0   -796.60013    13357.571 
     819 1.4365387e-06   -796.60013            0   -796.60013     13357.57 
     820 1.5206546e-06   -796.60012            0   -796.60012    13357.568 
     821 1.6062036e-06   -796.60012            0   -796.60012    13357.567 
     822  1.69291e-06   -796.60012            0   -796.60012    13357.565 
     823 1.7794205e-06   -796.60012            0   -796.60012    13357.564 
     824 1.8480065e-06   -796.60012            0   -796.60012    13357.562 
     825 1.6950945e-06   -796.60012            0   -796.60012     13357.56 
     826 4.6107298e-07   -796.60012            0   -796.60012    13357.561 
     827 9.9406712e-09   -796.60012            0   -796.60012    13357.561 
     828 1.8323557e-08   -796.60012            0   -796.60012     13357.56 
     829 3.1488782e-08   -796.60012            0   -796.60012     13357.56 
     830 4.726936e-08   -796.60012            0   -796.60012     13357.56 
     831 6.3515965e-08   -796.60012            0   -796.60012    13357.559 
     832 8.1114771e-08   -796.60012            0   -796.60012    13357.559 
     833 1.0070699e-07   -796.60012            0   -796.60012    13357.559 
     834 1.2235722e-07   -796.60012            0   -796.60012    13357.558 
     835 1.4604155e-07   -796.60012            0   -796.60012    13357.558 
     836 1.7173219e-07   -796.60012            0   -796.60012    13357.557 
     837 1.9939916e-07   -796.60012            0   -796.60012    13357.557 
     838 2.2900999e-07   -796.60012            0   -796.60012    13357.556 
     839 2.6052979e-07   -796.60012            0   -796.60012    13357.556 
     840 2.9392132e-07   -796.60012            0   -796.60012    13357.555 
     841 3.2914498e-07   -796.60012            0   -796.60012    13357.555 
     842 3.6615895e-07   -796.60012            0   -796.60012    13357.554 
     843 4.0491914e-07   -796.60012            0   -796.60012    13357.553 
     844 4.4537934e-07   -796.60011            0   -796.60011    13357.552 
     845 4.8749125e-07   -796.60011            0   -796.60011    13357.552 
     846 5.3120452e-07   -796.60011            0   -796.60011    13357.551 
     847 5.7646686e-07   -796.60011            0   -796.60011     13357.55 
     848 6.2322408e-07   -796.60011            0   -796.60011    13357.549 
     849 6.7142021e-07   -796.60011            0   -796.60011    13357.548 
     850 7.2099748e-07   -796.60011            0   -796.60011    13357.547 
     851 7.7189655e-07   -796.60011            0   -796.60011    13357.546 
     852 8.2405636e-07   -796.60011            0   -796.60011    13357.545 
     853 8.7741467e-07   -796.60011            0   -796.60011    13357.544 
     854 9.3190704e-07   -796.60011            0   -796.60011    13357.543 
     855 9.8746947e-07   -796.60011            0   -796.60011    13357.542 
     856 1.044029e-06   -796.60011            0   -796.60011    13357.541 
     857 1.1015044e-06   -796.60011            0   -796.60011     13357.54 
     858 1.1595016e-06   -796.60011            0   -796.60011    13357.538 
     859 1.2145541e-06   -796.60011            0   -796.60011    13357.537 
     860 1.2204124e-06    -796.6001            0    -796.6001    13357.536 
     861 7.5599191e-07    -796.6001            0    -796.6001    13357.534 
     862 2.4506739e-08    -796.6001            0    -796.6001    13357.534 
     863 4.9780647e-08    -796.6001            0    -796.6001    13357.534 
     864 6.547308e-08    -796.6001            0    -796.6001    13357.534 
     865 7.9779784e-08    -796.6001            0    -796.6001    13357.534 
     866 9.5464649e-08    -796.6001            0    -796.6001    13357.533 
     867 1.1250032e-07    -796.6001            0    -796.6001    13357.533 
     868 1.3086727e-07    -796.6001            0    -796.6001    13357.533 
     869 1.5054452e-07    -796.6001            0    -796.6001    13357.532 
     870 1.7150941e-07    -796.6001            0    -796.6001    13357.532 
     871 1.9373777e-07    -796.6001            0    -796.6001    13357.531 
     872 2.1720387e-07    -796.6001            0    -796.6001    13357.531 
     873 2.4188049e-07    -796.6001            0    -796.6001     13357.53 
     874 2.6773895e-07    -796.6001            0    -796.6001     13357.53 
     875 2.9474916e-07    -796.6001            0    -796.6001    13357.529 
     876 3.2287962e-07    -796.6001            0    -796.6001    13357.528 
     877 3.5209752e-07    -796.6001            0    -796.6001    13357.528 
     878 3.8236871e-07    -796.6001            0    -796.6001    13357.527 
     879 4.1365786e-07    -796.6001            0    -796.6001    13357.526 
     880 4.4592831e-07    -796.6001            0    -796.6001    13357.525 
     881 4.7914246e-07    -796.6001            0    -796.6001    13357.525 
     882 5.1326101e-07    -796.6001            0    -796.6001    13357.524 
     883 5.482443e-07    -796.6001            0    -796.6001    13357.523 
     884 5.8404519e-07    -796.6001            0    -796.6001    13357.522 
     885 6.2059599e-07    -796.6001            0    -796.6001    13357.521 
     886 6.5757425e-07    -796.6001            0    -796.6001     13357.52 
     887 6.9253528e-07   -796.60009            0   -796.60009    13357.519 
     888 7.0115321e-07   -796.60009            0   -796.60009    13357.518 
     889 4.9799585e-07   -796.60009            0   -796.60009    13357.517 
     890 5.1200765e-08   -796.60009            0   -796.60009    13357.517 
     891 5.3589635e-08   -796.60009            0   -796.60009    13357.517 
     892 6.4490354e-08   -796.60009            0   -796.60009    13357.516 
     893 7.6439316e-08   -796.60009            0   -796.60009    13357.516 
     894 8.9360559e-08   -796.60009            0   -796.60009    13357.516 
     895 1.0323853e-07   -796.60009            0   -796.60009    13357.515 
     896 1.1805727e-07   -796.60009            0   -796.60009    13357.515 
     897 1.3380007e-07   -796.60009            0   -796.60009    13357.515 
     898 1.5044898e-07   -796.60009            0   -796.60009    13357.514 
     899 1.679851e-07   -796.60009            0   -796.60009    13357.514 
     900 1.8638838e-07   -796.60009            0   -796.60009    13357.513 
     901 2.0563783e-07   -796.60009            0   -796.60009    13357.513 
     902 2.2571133e-07   -796.60009            0   -796.60009    13357.512 
     903 2.4658599e-07   -796.60009            0   -796.60009    13357.512 
     904 2.682376e-07   -796.60009            0   -796.60009    13357.511 
     905 2.9064144e-07   -796.60009            0   -796.60009     13357.51 
     906 3.1377031e-07   -796.60009            0   -796.60009     13357.51 
     907 3.3759486e-07   -796.60009            0   -796.60009    13357.509 
     908 3.6206385e-07   -796.60009            0   -796.60009    13357.508 
     909 3.870298e-07   -796.60009            0   -796.60009    13357.508 
     910 4.1161837e-07   -796.60009            0   -796.60009    13357.507 
     911 4.2983381e-07   -796.60009            0   -796.60009    13357.506 
     912 3.9902583e-07   -796.60009            0   -796.60009    13357.505 
     913 1.8065329e-07   -796.60009            0   -796.60009    13357.505 
     914 2.1683233e-08   -796.60009            0   -796.60009    13357.505 
     915 3.3409604e-08   -796.60009            0   -796.60009    13357.504 
     916 4.1056286e-08   -796.60009            0   -796.60009    13357.504 
     917 4.9441747e-08   -796.60009            0   -796.60009    13357.504 
     918 5.8577885e-08   -796.60009            0   -796.60009    13357.504 
     919 6.8454671e-08   -796.60009            0   -796.60009    13357.503 
     920 7.9061146e-08   -796.60009            0   -796.60009    13357.503 
     921 9.0385512e-08   -796.60008            0   -796.60008    13357.503 
     922 1.0241512e-07   -796.60008            0   -796.60008    13357.502 
     923 1.1513648e-07   -796.60008            0   -796.60008    13357.502 
     924 1.2853532e-07   -796.60008            0   -796.60008    13357.501 
     925 1.4259654e-07   -796.60008            0   -796.60008    13357.501 
     926 1.573043e-07   -796.60008            0   -796.60008    13357.501 
     927 1.7264198e-07   -796.60008            0   -796.60008      13357.5 
     928 1.8859223e-07   -796.60008            0   -796.60008      13357.5 
     929 2.0513699e-07   -796.60008            0   -796.60008    13357.499 
     930 2.2225753e-07   -796.60008            0   -796.60008    13357.498 
     931 2.3993444e-07   -796.60008            0   -796.60008    13357.498 
     932 2.5814765e-07   -796.60008            0   -796.60008    13357.497 
     933 2.7687653e-07   -796.60008            0   -796.60008    13357.497 
     934 2.9609962e-07   -796.60008            0   -796.60008    13357.496 
     935 3.1579471e-07   -796.60008            0   -796.60008    13357.495 
     936 3.3593338e-07   -796.60008            0   -796.60008    13357.495 
     937 3.5645163e-07   -796.60008            0   -796.60008    13357.494 
     938 3.7691373e-07   -796.60008            0   -796.60008    13357.493 
     939 3.9323858e-07   -796.60008            0   -796.60008    13357.492 
     940 3.6464261e-07   -796.60008            0   -796.60008    13357.492 
     941 1.2688677e-07   -796.60008            0   -796.60008    13357.491 
     942 5.4193359e-09   -796.60008            0   -796.60008    13357.491 
     943 9.9134148e-09   -796.60008            0   -796.60008    13357.491 
     944 1.5025847e-08   -796.60008            0   -796.60008    13357.491 
     945 1.9695268e-08   -796.60008            0   -796.60008    13357.491 
     946 2.468373e-08   -796.60008            0   -796.60008    13357.491 
     947 3.0209784e-08   -796.60008            0   -796.60008     13357.49 
     948 3.6276922e-08   -796.60008            0   -796.60008     13357.49 
     949 4.2878625e-08   -796.60008            0   -796.60008     13357.49 
     950 5.0007717e-08   -796.60008            0   -796.60008     13357.49 
     951 5.7656408e-08   -796.60008            0   -796.60008    13357.489 
     952 6.5816308e-08   -796.60008            0   -796.60008    13357.489 
     953 7.4478433e-08   -796.60008            0   -796.60008    13357.489 
     954 8.3633217e-08   -796.60008            0   -796.60008    13357.488 
     955 9.3270525e-08   -796.60008            0   -796.60008    13357.488 
     956 1.0337966e-07   -796.60008            0   -796.60008    13357.488 
     957 1.139494e-07   -796.60008            0   -796.60008    13357.487 
     958 1.2496796e-07   -796.60008            0   -796.60008    13357.487 
     959 1.3642306e-07   -796.60008            0   -796.60008    13357.486 
     960 1.4830192e-07   -796.60008            0   -796.60008    13357.486 
     961 1.6059127e-07   -796.60007            0   -796.60007    13357.486 
     962 1.7327738e-07   -796.60007            0   -796.60007    13357.485 
     963 1.8634607e-07   -796.60007            0   -796.60007    13357.485 
     964 1.9978269e-07   -796.60007            0   -796.60007    13357.484 
     965 2.1357227e-07   -796.60007            0   -796.60007    13357.483 
     966 2.2769924e-07   -796.60007            0   -796.60007    13357.483 
     967 2.4214802e-07   -796.60007            0   -796.60007    13357.482 
     968 2.569012e-07   -796.60007            0   -796.60007    13357.482 
     969 2.7193905e-07   -796.60007            0   -796.60007    13357.481 
     970 2.8718504e-07   -796.60007            0   -796.60007     13357.48 
     971 3.0201351e-07   -796.60007            0   -796.60007     13357.48 
     972 3.0858098e-07   -796.60007            0   -796.60007    13357.479 
     973 2.2801363e-07   -796.60007            0   -796.60007    13357.479 
     974 1.7140348e-08   -796.60007            0   -796.60007    13357.478 
     975 2.0150167e-08   -796.60007            0   -796.60007    13357.478 
     976 2.4296685e-08   -796.60007            0   -796.60007    13357.478 
     977 2.8819684e-08   -796.60007            0   -796.60007    13357.478 
     978 3.3712603e-08   -796.60007            0   -796.60007    13357.478 
     979 3.897013e-08   -796.60007            0   -796.60007    13357.477 
     980 4.4586569e-08   -796.60007            0   -796.60007    13357.477 
     981 5.0555826e-08   -796.60007            0   -796.60007    13357.477 
     982 5.6871398e-08   -796.60007            0   -796.60007    13357.477 
     983 6.3526391e-08   -796.60007            0   -796.60007    13357.476 
     984 7.0513519e-08   -796.60007            0   -796.60007    13357.476 
     985 7.7825121e-08   -796.60007            0   -796.60007    13357.476 
     986 8.545316e-08   -796.60007            0   -796.60007    13357.475 
     987 9.3389249e-08   -796.60007            0   -796.60007    13357.475 
     988 1.0162463e-07   -796.60007            0   -796.60007    13357.475 
     989 1.1015023e-07   -796.60007            0   -796.60007    13357.474 
     990 1.1895652e-07   -796.60007            0   -796.60007    13357.474 
     991 1.2803348e-07   -796.60007            0   -796.60007    13357.473 
     992 1.3736892e-07   -796.60007            0   -796.60007    13357.473 
     993 1.4694048e-07   -796.60007            0   -796.60007    13357.472 
     994 1.5665163e-07   -796.60007            0   -796.60007    13357.472 
     995 1.658457e-07   -796.60007            0   -796.60007    13357.471 
     996 1.6921626e-07   -796.60007            0   -796.60007    13357.471 
     997 1.3100232e-07   -796.60007            0   -796.60007    13357.471 
     998 2.4820823e-08   -796.60007            0   -796.60007     13357.47 
     999 1.1294807e-08   -796.60007            0   -796.60007     13357.47 
    1000 1.4202446e-08   -796.60007            0   -796.60007     13357.47 
    1001 1.7239457e-08   -796.60007            0   -796.60007     13357.47 
    1002 2.0562332e-08   -796.60007            0   -796.60007     13357.47 
    1003 2.4166603e-08   -796.60007            0   -796.60007     13357.47 
    1004 2.8048425e-08   -796.60007            0   -796.60007    13357.469 
    1005 3.2203636e-08   -796.60006            0   -796.60006    13357.469 
    1006 3.6627774e-08   -796.60006            0   -796.60006    13357.469 
    1007 4.1316066e-08   -796.60006            0   -796.60006    13357.469 
    1008 4.6263441e-08   -796.60006            0   -796.60006    13357.468 
    1009 5.1464533e-08   -796.60006            0   -796.60006    13357.468 
    1010 5.691369e-08   -796.60006            0   -796.60006    13357.468 
    1011 6.2604979e-08   -796.60006            0   -796.60006    13357.468 
    1012 6.8532193e-08   -796.60006            0   -796.60006    13357.467 
    1013 7.4688856e-08   -796.60006            0   -796.60006    13357.467 
    1014 8.1068239e-08   -796.60006            0   -796.60006    13357.467 
    1015 8.7663346e-08   -796.60006            0   -796.60006    13357.466 
    1016 9.4466947e-08   -796.60006            0   -796.60006    13357.466 
    1017 1.0147142e-07   -796.60006            0   -796.60006    13357.466 
    1018 1.0866846e-07   -796.60006            0   -796.60006    13357.465 
    1019 1.1604512e-07   -796.60006            0   -796.60006    13357.465 
    1020 1.2355825e-07   -796.60006            0   -796.60006    13357.464 
    1021 1.3090305e-07   -796.60006            0   -796.60006    13357.464 
    1022 1.354423e-07   -796.60006            0   -796.60006    13357.463 
    1023 1.1564001e-07   -796.60006            0   -796.60006    13357.463 
[...]
    2065 4.9157156e-06   -796.62212            0   -796.62212    13406.024 
    2066 5.2666435e-06   -796.62212            0   -796.62212    13406.025 
    2067 5.6250248e-06   -796.62212            0   -796.62212    13406.027 
    2068 5.9902295e-06   -796.62212            0   -796.62212    13406.029 
    2069 6.3615317e-06   -796.62212            0   -796.62212    13406.031 
    2070 6.7383614e-06   -796.62212            0   -796.62212    13406.033 
    2071 7.1192974e-06   -796.62212            0   -796.62212    13406.035 
    2072 7.5021844e-06   -796.62212            0   -796.62212    13406.036 
    2073 7.8484869e-06   -796.62212            0   -796.62212    13406.039 
    2074 7.7652856e-06   -796.62211            0   -796.62211    13406.038 
    2075 4.0878462e-06   -796.62211            0   -796.62211    13406.047 
    2076 9.0071733e-08   -796.62211            0   -796.62211    13406.046 
    2077 1.5309488e-07   -796.62211            0   -796.62211    13406.044 
    2078 2.3759612e-07   -796.62211            0   -796.62211    13406.043 
    2079 3.1433538e-07   -796.62211            0   -796.62211    13406.043 
    2080 3.9366048e-07   -796.62211            0   -796.62211    13406.044 
    2081 4.8156012e-07   -796.62211            0   -796.62211    13406.044 
    2082 5.7793965e-07   -796.62211            0   -796.62211    13406.045 
    2083 6.8259493e-07   -796.62211            0   -796.62211    13406.045 
    2084 7.953454e-07   -796.62211            0   -796.62211    13406.046 
    2085 9.1599606e-07   -796.62211            0   -796.62211    13406.047 
    2086 1.0443363e-06   -796.62211            0   -796.62211    13406.047 
    2087 1.1801405e-06   -796.62211            0   -796.62211    13406.048 
    2088 1.323168e-06   -796.62211            0   -796.62211    13406.049 
    2089 1.4731634e-06   -796.62211            0   -796.62211     13406.05 
    2090 1.6298569e-06   -796.62211            0   -796.62211    13406.051 
    2091 1.7929644e-06   -796.62211            0   -796.62211    13406.052 
    2092 1.9621879e-06   -796.62211            0   -796.62211    13406.053 
    2093 2.1372159e-06   -796.62211            0   -796.62211    13406.054 
    2094 2.3177234e-06   -796.62211            0   -796.62211    13406.055 
    2095 2.5033726e-06   -796.62211            0   -796.62211    13406.056 
    2096 2.6938125e-06    -796.6221            0    -796.6221    13406.057 
    2097 2.8886808e-06    -796.6221            0    -796.6221    13406.059 
    2098 3.0876013e-06    -796.6221            0    -796.6221     13406.06 
    2099 3.2901906e-06    -796.6221            0    -796.6221    13406.061 
    2100 3.4960425e-06    -796.6221            0    -796.6221    13406.063 
    2101 3.7047703e-06    -796.6221            0    -796.6221    13406.064 
    2102 3.9158768e-06    -796.6221            0    -796.6221    13406.066 
    2103 4.1290454e-06    -796.6221            0    -796.6221    13406.067 
    2104 4.3419553e-06    -796.6221            0    -796.6221    13406.069 
    2105 4.5416629e-06    -796.6221            0    -796.6221     13406.07 
    2106 4.5134199e-06    -796.6221            0    -796.6221    13406.074 
    2107 2.4733939e-06    -796.6221            0    -796.6221    13406.069 
    2108 3.6835823e-08    -796.6221            0    -796.6221     13406.07 
    2109 6.2291935e-08    -796.6221            0    -796.6221    13406.072 
    2110 1.0143225e-07    -796.6221            0    -796.6221    13406.073 
    2111 1.4282376e-07    -796.6221            0    -796.6221    13406.074 
    2112 1.8310434e-07   -796.62209            0   -796.62209    13406.074 
    2113 2.2733395e-07   -796.62209            0   -796.62209    13406.075 
    2114 2.7611267e-07   -796.62209            0   -796.62209    13406.075 
    2115 3.2936206e-07   -796.62209            0   -796.62209    13406.076 
    2116 3.8698905e-07   -796.62209            0   -796.62209    13406.076 
    2117 4.4888665e-07   -796.62209            0   -796.62209    13406.077 
    2118 5.1493944e-07   -796.62209            0   -796.62209    13406.077 
    2119 5.850232e-07   -796.62209            0   -796.62209    13406.078 
    2120 6.5900525e-07   -796.62209            0   -796.62209    13406.078 
    2121 7.3674451e-07   -796.62209            0   -796.62209    13406.079 
    2122 8.180917e-07   -796.62209            0   -796.62209     13406.08 
    2123 9.0288954e-07   -796.62209            0   -796.62209     13406.08 
    2124 9.9097292e-07   -796.62209            0   -796.62209    13406.081 
    2125 1.0821691e-06   -796.62209            0   -796.62209    13406.082 
    2126 1.1762979e-06   -796.62209            0   -796.62209    13406.083 
    2127 1.273172e-06   -796.62209            0   -796.62209    13406.084 
    2128 1.3725972e-06   -796.62209            0   -796.62209    13406.085 
    2129 1.4743721e-06   -796.62209            0   -796.62209    13406.086 
    2130 1.5782897e-06   -796.62209            0   -796.62209    13406.087 
    2131 1.6841348e-06   -796.62209            0   -796.62209    13406.088 
    2132 1.7916913e-06   -796.62209            0   -796.62209    13406.089 
    2133 1.9007228e-06   -796.62209            0   -796.62209     13406.09 
    2134 2.011023e-06   -796.62209            0   -796.62209    13406.091 
    2135 2.1222174e-06   -796.62209            0   -796.62209    13406.092 
    2136 2.2338389e-06   -796.62208            0   -796.62208    13406.093 
    2137 2.3381498e-06   -796.62208            0   -796.62208    13406.095 
    2138 2.3524382e-06   -796.62208            0   -796.62208    13406.095 
    2139 1.4445708e-06   -796.62208            0   -796.62208    13406.099 
    2140 3.9959161e-08   -796.62208            0   -796.62208    13406.098 
    2141 6.9612431e-08   -796.62208            0   -796.62208    13406.097 
    2142 9.7498588e-08   -796.62208            0   -796.62208    13406.097 
    2143 1.2097238e-07   -796.62208            0   -796.62208    13406.097 
    2144 1.4698898e-07   -796.62208            0   -796.62208    13406.098 
    2145 1.7541427e-07   -796.62208            0   -796.62208    13406.098 
    2146 2.061724e-07   -796.62208            0   -796.62208    13406.098 
    2147 2.3920388e-07   -796.62208            0   -796.62208    13406.099 
    2148 2.7444337e-07   -796.62208            0   -796.62208    13406.099 
    2149 3.1182097e-07   -796.62208            0   -796.62208      13406.1 
    2150 3.5126186e-07   -796.62208            0   -796.62208      13406.1 
    2151 3.9268669e-07   -796.62208            0   -796.62208    13406.101 
    2152 4.3601145e-07   -796.62208            0   -796.62208    13406.101 
    2153 4.8114781e-07   -796.62208            0   -796.62208    13406.102 
    2154 5.2800303e-07   -796.62208            0   -796.62208    13406.102 
    2155 5.7648032e-07   -796.62208            0   -796.62208    13406.103 
    2156 6.2647867e-07   -796.62208            0   -796.62208    13406.104 
    2157 6.7789345e-07   -796.62208            0   -796.62208    13406.104 
    2158 7.3061571e-07   -796.62208            0   -796.62208    13406.105 
    2159 7.8453405e-07   -796.62208            0   -796.62208    13406.106 
    2160 8.3953107e-07   -796.62208            0   -796.62208    13406.106 
    2161 8.9549171e-07   -796.62208            0   -796.62208    13406.107 
    2162 9.522821e-07   -796.62208            0   -796.62208    13406.108 
    2163 1.0097956e-06   -796.62208            0   -796.62208    13406.109 
    2164 1.0677274e-06   -796.62208            0   -796.62208     13406.11 
    2165 1.125268e-06   -796.62208            0   -796.62208    13406.111 
    2166 1.1708625e-06   -796.62208            0   -796.62207    13406.112 
    2167 1.0875619e-06   -796.62207            0   -796.62207    13406.111 
    2168 3.4194005e-07   -796.62207            0   -796.62207    13406.114 
    2169 8.2243673e-09   -796.62207            0   -796.62207    13406.114 
    2170 1.4528984e-08   -796.62207            0   -796.62207    13406.114 
    2171 2.3843317e-08   -796.62207            0   -796.62207    13406.113 
    2172 3.4362941e-08   -796.62207            0   -796.62207    13406.113 
    2173 4.523918e-08   -796.62207            0   -796.62207    13406.113 
    2174 5.7206522e-08   -796.62207            0   -796.62207    13406.114 
    2175 7.0505852e-08   -796.62207            0   -796.62207    13406.114 
    2176 8.5123254e-08   -796.62207            0   -796.62207    13406.114 
    2177 1.0102721e-07   -796.62207            0   -796.62207    13406.114 
    2178 1.1818522e-07   -796.62207            0   -796.62207    13406.115 
    2179 1.3656213e-07   -796.62207            0   -796.62207    13406.115 
    2180 1.5612002e-07   -796.62207            0   -796.62207    13406.115 
    2181 1.7681822e-07   -796.62207            0   -796.62207    13406.116 
    2182 1.9861344e-07   -796.62207            0   -796.62207    13406.116 
    2183 2.2145979e-07   -796.62207            0   -796.62207    13406.116 
    2184 2.4530884e-07   -796.62207            0   -796.62207    13406.117 
    2185 2.7010976e-07   -796.62207            0   -796.62207    13406.117 
    2186 2.9580932e-07   -796.62207            0   -796.62207    13406.118 
    2187  3.22352e-07   -796.62207            0   -796.62207    13406.118 
    2188 3.496801e-07   -796.62207            0   -796.62207    13406.119 
    2189 3.777338e-07   -796.62207            0   -796.62207    13406.119 
    2190 4.0645122e-07   -796.62207            0   -796.62207     13406.12 
    2191 4.3576862e-07   -796.62207            0   -796.62207     13406.12 
    2192 4.6562023e-07   -796.62207            0   -796.62207    13406.121 
    2193 4.9593903e-07   -796.62207            0   -796.62207    13406.121 
    2194 5.2665498e-07   -796.62207            0   -796.62207    13406.122 
    2195 5.5770005e-07   -796.62207            0   -796.62207    13406.123 
    2196 5.8899211e-07   -796.62207            0   -796.62207    13406.123 
    2197 6.2046455e-07   -796.62207            0   -796.62207    13406.124 
    2198 6.517145e-07   -796.62207            0   -796.62207    13406.125 
    2199 6.7978353e-07   -796.62207            0   -796.62207    13406.125 
    2200 6.5801865e-07   -796.62207            0   -796.62207    13406.127 
    2201 2.639215e-07   -796.62207            0   -796.62207    13406.125 
    2202 1.1163595e-09   -796.62207            0   -796.62207    13406.125 
    2203 2.2320022e-09   -796.62207            0   -796.62207    13406.126 
    2204 4.1153484e-09   -796.62207            0   -796.62207    13406.126 
    2205 7.2807717e-09   -796.62207            0   -796.62207    13406.126 
    2206 1.1907587e-08   -796.62207            0   -796.62207    13406.127 
    2207 1.7111396e-08   -796.62207            0   -796.62207    13406.127 
    2208 2.2531205e-08   -796.62207            0   -796.62207    13406.127 
    2209 2.8502294e-08   -796.62207            0   -796.62207    13406.127 
    2210 3.5131389e-08   -796.62207            0   -796.62207    13406.127 
    2211 4.2413868e-08   -796.62207            0   -796.62207    13406.127 
    2212 5.0335155e-08   -796.62207            0   -796.62207    13406.128 
    2213 5.887854e-08   -796.62207            0   -796.62207    13406.128 
    2214 6.8025778e-08   -796.62207            0   -796.62207    13406.128 
    2215 7.775721e-08   -796.62207            0   -796.62207    13406.128 
    2216 8.8051774e-08   -796.62207            0   -796.62207    13406.129 
    2217 9.8887051e-08   -796.62207            0   -796.62207    13406.129 
    2218 1.1023929e-07   -796.62207            0   -796.62207    13406.129 
    2219 1.2208347e-07   -796.62207            0   -796.62207    13406.129 
    2220 1.3439331e-07   -796.62207            0   -796.62207     13406.13 
    2221 1.4714134e-07   -796.62207            0   -796.62207     13406.13 
    2222 1.6029891e-07   -796.62207            0   -796.62207     13406.13 
    2223 1.738363e-07   -796.62207            0   -796.62207    13406.131 
    2224 1.8772267e-07   -796.62207            0   -796.62207    13406.131 
    2225 2.0192625e-07   -796.62206            0   -796.62206    13406.132 
    2226 2.164142e-07   -796.62206            0   -796.62206    13406.132 
    2227 2.3115293e-07   -796.62206            0   -796.62206    13406.132 
    2228 2.4610763e-07   -796.62206            0   -796.62206    13406.133 
    2229 2.6124365e-07   -796.62206            0   -796.62206    13406.133 
    2230 2.7652275e-07   -796.62206            0   -796.62206    13406.134 
    2231  2.91913e-07   -796.62206            0   -796.62206    13406.134 
    2232 3.0734526e-07   -796.62206            0   -796.62206    13406.135 
    2233 3.2269167e-07   -796.62206            0   -796.62206    13406.135 
    2234 3.3553524e-07   -796.62206            0   -796.62206    13406.136 
    2235 3.1632112e-07   -796.62206            0   -796.62206    13406.136 
    2236 9.3108146e-08   -796.62206            0   -796.62206    13406.137 
    2237 3.6025762e-10   -796.62206            0   -796.62206    13406.137 
    2238 8.0766932e-10   -796.62206            0   -796.62206    13406.137 
    2239 1.5623852e-09   -796.62206            0   -796.62206    13406.137 
    2240 2.8176215e-09   -796.62206            0   -796.62206    13406.137 
    2241 4.7222849e-09   -796.62206            0   -796.62206    13406.137 
    2242 7.0541669e-09   -796.62206            0   -796.62206    13406.137 
    2243 9.5480176e-09   -796.62206            0   -796.62206    13406.137 
    2244 1.2286953e-08   -796.62206            0   -796.62206    13406.137 
    2245 1.5345565e-08   -796.62206            0   -796.62206    13406.137 
    2246 1.8727571e-08   -796.62206            0   -796.62206    13406.137 
    2247 2.2425125e-08   -796.62206            0   -796.62206    13406.137 
    2248 2.6429978e-08   -796.62206            0   -796.62206    13406.137 
    2249 3.0733322e-08   -796.62206            0   -796.62206    13406.138 
    2250 3.5325619e-08   -796.62206            0   -796.62206    13406.138 
    2251 4.0196622e-08   -796.62206            0   -796.62206    13406.138 
    2252 4.5335392e-08   -796.62206            0   -796.62206    13406.138 
    2253 5.0730318e-08   -796.62206            0   -796.62206    13406.138 
    2254 5.6369134e-08   -796.62206            0   -796.62206    13406.138 
    2255 6.2238948e-08   -796.62206            0   -796.62206    13406.139 
    2256 6.8326254e-08   -796.62206            0   -796.62206    13406.139 
    2257 7.4616965e-08   -796.62206            0   -796.62206    13406.139 
    2258 8.1096431e-08   -796.62206            0   -796.62206    13406.139 
    2259 8.7749469e-08   -796.62206            0   -796.62206     13406.14 
    2260 9.4560383e-08   -796.62206            0   -796.62206     13406.14 
    2261  1.01513e-07   -796.62206            0   -796.62206     13406.14 
    2262 1.0859068e-07   -796.62206            0   -796.62206    13406.141 
    2263 1.1577638e-07   -796.62206            0   -796.62206    13406.141 
    2264 1.2305258e-07   -796.62206            0   -796.62206    13406.141 
    2265 1.3040162e-07   -796.62206            0   -796.62206    13406.142 
    2266 1.3780469e-07   -796.62206            0   -796.62206    13406.142 
    2267 1.4524454e-07   -796.62206            0   -796.62206    13406.142 
    2268 1.526883e-07   -796.62206            0   -796.62206    13406.143 
    2269 1.6003798e-07   -796.62206            0   -796.62206    13406.143 
    2270 1.6566969e-07   -796.62206            0   -796.62206    13406.143 
    2271 1.477184e-07   -796.62206            0   -796.62206    13406.143 
    2272 2.4706222e-08   -796.62206            0   -796.62206    13406.144 
    2273  6.60991e-10   -796.62206            0   -796.62206    13406.144 
    2274 1.214856e-09   -796.62206            0   -796.62206    13406.144 
    2275 2.0481026e-09   -796.62206            0   -796.62206    13406.144 
    2276 3.0837585e-09   -796.62206            0   -796.62206    13406.144 
    2277 4.2200886e-09   -796.62206            0   -796.62206    13406.144 
    2278 5.4765773e-09   -796.62206            0   -796.62206    13406.144 
    2279 6.8827776e-09   -796.62206            0   -796.62206    13406.144 
    2280 8.4416429e-09   -796.62206            0   -796.62206    13406.144 
    2281 1.0149751e-08   -796.62206            0   -796.62206    13406.144 
    2282 1.2003201e-08   -796.62206            0   -796.62206    13406.144 
    2283 1.3997797e-08   -796.62206            0   -796.62206    13406.145 
    2284 1.6128992e-08   -796.62206            0   -796.62206    13406.145 
    2285 1.8391894e-08   -796.62206            0   -796.62206    13406.145 
    2286 2.0781273e-08   -796.62206            0   -796.62206    13406.145 
    2287 2.3291577e-08   -796.62206            0   -796.62206    13406.145 
    2288 2.5916936e-08   -796.62206            0   -796.62206    13406.145 
    2289 2.8651174e-08   -796.62206            0   -796.62206    13406.145 
    2290 3.1487822e-08   -796.62206            0   -796.62206    13406.145 
    2291 3.4420132e-08   -796.62206            0   -796.62206    13406.146 
    2292 3.7441083e-08   -796.62206            0   -796.62206    13406.146 
    2293 4.0543398e-08   -796.62206            0   -796.62206    13406.146 
    2294 4.3719556e-08   -796.62206            0   -796.62206    13406.146 
    2295 4.696181e-08   -796.62206            0   -796.62206    13406.146 
    2296 5.0262186e-08   -796.62206            0   -796.62206    13406.147 
    2297 5.3612525e-08   -796.62206            0   -796.62206    13406.147 
    2298 5.700445e-08   -796.62206            0   -796.62206    13406.147 
    2299 6.0429467e-08   -796.62206            0   -796.62206    13406.147 
    2300 6.3878796e-08   -796.62206            0   -796.62206    13406.148 
    2301 6.7343791e-08   -796.62206            0   -796.62206    13406.148 
    2302 7.0815008e-08   -796.62206            0   -796.62206    13406.148 
    2303 7.4283793e-08   -796.62206            0   -796.62206    13406.148 
    2304 7.7732985e-08   -796.62206            0   -796.62206    13406.149 
    2305 8.1039744e-08   -796.62206            0   -796.62206    13406.149 
    2306 8.2213008e-08   -796.62206            0   -796.62206    13406.149 
    2307 5.3110685e-08   -796.62206            0   -796.62206    13406.149 
    2308 7.5205637e-11   -796.62206            0   -796.62206    13406.149 
Loop time of 421.229 on 16 procs for 842 steps with 127 atoms

99.1% CPU use with 16 MPI tasks x no OpenMP threads

Minimization stats:
  Stopping criterion = energy tolerance
  Energy initial, next-to-last, final = 
        -796.600035964     -796.622056725     -796.622056725
  Force two-norm initial, final = 3.98903e-06 3.97455e-05
  Force max component initial, final = 2.99116e-06 1.88598e-05
  Final line search alpha, max atom move = 0 0
  Iterations, force evaluations = 842 842

MPI task timing breakdown:
Section |  min time  |  avg time  |  max time  |%varavg| %total
---------------------------------------------------------------
Pair    | 224.89     | 257.73     | 269.23     |  59.9 | 61.19
Neigh   | 0          | 0          | 0          |   0.0 |  0.00
Comm    | 0.072084   | 11.572     | 44.411     | 282.9 |  2.75
Output  | 0.13312    | 0.13515    | 0.13921    |   0.4 |  0.03
Modify  | 75.773     | 75.774     | 75.776     |   0.0 | 17.99
Other   |            | 76.02      |            |       | 18.05

Nlocal:    7.9375 ave 8 max 7 min
Histogram: 1 0 0 0 0 0 0 0 0 15
Nghost:    819.812 ave 824 max 816 min
Histogram: 4 0 0 0 0 8 0 1 1 2
Neighs:    0 ave 0 max 0 min
Histogram: 16 0 0 0 0 0 0 0 0 0
FullNghs:  1600.5 ave 1627 max 1418 min
Histogram: 1 0 0 0 0 0 0 0 3 12

Total # of neighbors = 25608
Ave neighs/atom = 201.638
Neighbor list builds = 0
Dangerous builds = 0
Total wall time: 0:19:23
