# LAMMPS data file written by OVITO Pro 3.6.0
127 atoms
3 atom types
0.0 10.0025 xlo xhi
0.0 12.353714 ylo yhi
0.0 10.615024 zlo zhi

Masses

1 7.01
2 30.974
3 32.066

Atoms  # atomic

22 3 1.501355245 0.231247937 1.1069347027
16 2 1.0109626775 1.5356407725 1.7986521267
28 3 1.5100074075 1.6032650029 3.2630053025
2 1 1.051162725 0.1966624793 4.5743429073
31 3 1.563970895 2.7848853933 1.067690959
7 1 3.543265595 0.0868273376 1.1268272577
3 1 3.4987444675 1.7152267129 3.6731273697
32 3 4.4461212525 1.6662442369 1.8436916735
25 3 1.5907275825 0.3778556379 6.4307513796
11 1 1.60424096 0.0448621418 9.8223152377
30 3 1.6296073 2.9261748203 6.5263927458
15 2 1.07718923 1.6530381166 7.1885367129
17 3 1.5473167325 1.5900465289 8.6710521948
12 1 3.57789425 0.1312223855 6.3966028474
5 1 3.5915876725 1.6588567159 8.9092745634
23 3 4.517669135 1.666800154 7.1296233297
8 1 0.785720381 3.6745751682 3.1134502293
27 3 2.04819192 4.8315251917 3.775392511
9 1 3.50959718 3.2496074066 1.1320498495
18 3 4.1055761375 3.4922096421 4.4506991078
21 3 4.094043255 4.7593177334 2.2520941069
13 2 3.580234835 4.7808131957 3.7381443917
20 3 4.1278016925 6.0647470454 4.4489157838
10 1 1.584015905 3.2006372843 9.8226761485
4 1 1.6014302575 4.7304965186 7.2607931813
29 3 0.701915435 4.7441226651 9.0022303286
6 1 3.5507774725 3.2019961928 6.3550981035
19 3 3.6200347825 3.4694417472 9.7341150033
26 3 3.6536431825 4.7603183842 7.538418519
14 2 4.1507874375 4.742788464 9.0182059397
24 3 3.63898952 6.0123055295 9.7497403186
54 3 1.62216544 6.7603846808 1.0271203373
48 2 1.0277668775 7.9149504375 1.85101604
60 3 1.527201705 7.8795323395 3.3272261977
34 1 1.043280755 6.283938993 4.4905585229
63 3 1.4915828025 9.2587256779 1.1836070211
39 1 3.505736215 6.2638889151 1.1436202257
35 1 3.5551385625 7.8338483051 3.6432885373
64 3 4.4678066725 7.845127246 1.8338409312
57 3 1.58431598 6.5764872942 6.3734727101
43 1 1.605941385 6.2632218146 9.8324950457
62 3 1.577654315 9.1159785126 6.4037467585
47 2 1.0660564475 7.8338606588 7.1382108841
49 3 1.5830856725 7.8260160504 8.5973096231
44 1 3.591997775 6.2935501824 6.3620509443
37 1 3.6132330825 7.8184926386 8.9240400618
55 3 4.5069364525 7.8343795148 7.1361515695
33 1 1.0562539975 9.3829793333 4.5484847089
40 1 1.01393342 10.9281077581 2.0630299144
59 3 1.96921218 10.9506656399 3.7928436104
41 1 3.522660445 9.4106516526 1.1384188639
50 3 4.0543033225 9.6561075961 4.467576996
53 3 4.0317176775 10.9317026889 2.2736850657
45 2 3.52520108 10.9411903412 3.7580475617
52 3 4.05825431 12.2230858282 4.4656556766
42 1 1.58147527 9.3652517537 9.8588415353
36 1 1.60364081 10.924957561 7.3055885825
61 3 0.6855763513 10.891441935 9.0103083618
38 1 3.577714205 9.3692420033 6.3881214432
51 3 3.615843735 9.6412337244 9.7568311547
58 3 3.6294571375 10.9164458521 7.5567188203
46 2 4.1422252975 10.9113808294 9.0326742174
56 3 3.6373991225 12.1897308004 9.7554193565
86 3 6.5141381275 0.3648854736 1.1407860143
80 2 6.0033704675 1.653927584 1.8708555199
92 3 6.525050855 1.6499867493 3.334869015
66 1 6.0480216275 0.1392510642 4.5526564133
95 3 6.5469863375 2.9176136965 1.1285999667
71 1 8.5114573325 0.0597463906 1.106626867
67 1 8.57750384 1.656694816 3.6523643828
96 3 9.44944177 1.5988794345 1.7888226144
89 3 6.583585485 0.3760742323 6.4108482096
75 1 6.5805947375 0.1038980702 9.834395135
94 3 6.61505335 2.9163042028 6.4068038854
79 2 6.0756485325 1.6561265451 7.1529869975
81 3 6.58704635 1.6455270585 8.6159496052
76 1 8.592647625 0.1221538946 6.3932272697
69 1 8.64280016 1.6447858357 8.9144546951
87 3 9.5161084325 1.6433404511 7.1398349828
65 1 6.069416975 3.1966840958 4.5473276713
72 1 6.0642256775 4.756006938 1.9880241548
91 3 6.910267135 4.7781695009 3.7587481533
73 1 8.575803415 3.2094454823 1.0940374486
82 3 8.9933977875 3.4655132661 4.4095765048
85 3 8.9734928125 4.712855415 2.2528583886
77 2 8.4652457825 4.7558216323 3.7268712363
84 3 9.010672105 6.036345857 4.4357213089
74 1 6.6043406725 3.1937562656 9.8295971442
68 1 6.613713015 4.7275316272 7.3045483102
93 3 5.7130279 4.7340914494 9.0320903911
70 1 8.677028715 3.1984753843 6.349121845
83 3 8.62711624 3.4648832267 9.7352295808
90 3 8.626776155 4.7428996474 7.5400744627
78 2 9.148026435 4.7400335858 9.0133973338
88 3 8.6273563 6.0117866735 9.7410996891
118 3 6.575943575 6.5839736449 1.1423145777
112 2 6.02486584 7.8510323213 1.8708024448
124 3 6.5309023175 7.8629783627 3.3416201702
98 1 6.0699171 6.3320196478 4.5482830234
127 3 6.5420351 9.1380669532 1.144649883
103 1 8.65064212 6.2479526241 1.1167111398
99 1 8.561439825 7.8406552015 3.6277481421
1 3 9.4677163375 7.8555537806 1.8327263537
121 3 6.58960699 6.5617616671 6.4153383647
107 1 6.6057610275 6.2785527736 9.8469314784
126 3 6.5815749825 9.1018582175 6.4113152706
111 2 6.0645057475 7.8299074703 7.1591118664
113 3 6.5787542775 7.8294133218 8.6196754786
108 1 8.5900969875 6.2876327534 6.3757337102
101 1 8.6269461975 7.8173684506 8.9090622629
119 3 9.50849653 7.8326252874 7.1217469819
97 1 6.0472214275 9.3729357638 4.5553207843
104 1 6.03978957 10.9239074954 2.0248582881
123 3 6.95969949 10.9291825312 3.7812201591
105 1 8.5543080425 9.4006822054 1.1160317783
114 3 9.0498719025 9.6423208513 4.4559535447
117 3 9.002310015 10.9238951416 2.2621889947
109 2 8.5170787375 10.9258840896 3.7502349041
116 3 9.0532727525 12.2039375715 4.4607303055
106 1 6.59656873 9.3692172959 9.8424943984
100 1 6.599789535 10.9199790143 7.3083803339
125 3 5.7013149725 10.9025973387 9.0306042877
102 1 8.58126478 9.3649058497 6.3797992644
115 3 8.6144030625 9.6265698659 9.7420550413
122 3 8.61311274 10.9093301128 7.5454244348
110 2 9.130942165 10.9013372599 9.0192568271
120 3 8.6087216425 12.1701007488 9.7483179054
