# LAMMPS data file written by OVITO Pro 3.6.0
127 atoms
3 atom types
0.0 10.0025 xlo xhi
0.0 12.353714 ylo yhi
0.0 10.615024 zlo zhi

Masses

1 7.01
2 30.974
3 32.066

Atoms  # atomic

22 3 1.494673575 0.2735569367 1.075195781
16 2 1.01977488 1.5511076224 1.8396898094
28 3 1.5672217075 1.5170237255 3.2704464343
2 1 1.0582645 0.1829869179 4.5837690487
31 3 1.555048665 2.8354738521 1.1165306844
7 1 3.529022035 0.0887862661 1.1330370467
3 1 3.4956236875 1.7134107169 3.6811417129
32 3 4.44827179 1.6562871434 1.8410273025
25 3 1.59019745 0.3756591475 6.4429055821
11 1 1.6011701925 0.0411129131 9.8166255849
30 3 1.6375992975 2.9257053792 6.5533761368
15 2 1.07674912 1.6504685441 7.200945676
17 3 1.5426955775 1.5840426239 8.6860299936
12 1 3.57617382 0.1267318104 6.398640932
5 1 3.58777672 1.6521362955 8.9122361551
23 3 4.5112175225 1.6579796022 7.1408434101
8 1 0.9192907653 4.2274656382 2.405173368
27 3 2.042170415 4.8328099779 3.7414562792
9 1 3.542665445 3.2312621413 1.1277083047
18 3 4.1066964175 3.4969905294 4.4497437556
21 3 4.0878317025 4.7544009552 2.2422539796
13 2 3.57637387 4.7775147541 3.7322318234
20 3 4.1196996675 6.0620909969 4.445476516
10 1 1.58495614 3.1837991721 9.8318156842
4 1 1.60144026 4.7251473604 7.2775543042
29 3 0.7009812015 4.7403424287 9.0240548179
6 1 3.55476847 3.1989942403 6.357507714
19 3 3.6161038 3.4677122272 9.7406432431
26 3 3.6548834925 4.7602566156 7.5457853456
14 2 4.14719654 4.742529036 9.0256576865
24 3 3.63274796 6.0135038398 9.7557696523
54 3 1.5826455625 6.6750452245 1.078305983
48 2 1.0157238675 7.8790505446 1.8662698295
60 3 1.5135482925 7.8599022879 3.3411318791
34 1 1.041000185 6.2538700531 4.5269680552
63 3 1.503395755 9.2011944318 1.1744993305
39 1 3.5148084825 6.2659890465 1.1422190425
35 1 3.54712656 7.8287215138 3.6473328614
64 3 4.461135005 7.8429900535 1.834626443
57 3 1.587376745 6.5676543887 6.390265678
43 1 1.6026105525 6.2661249374 9.8407853795
62 3 1.5795847975 9.1078250614 6.4100626978
47 2 1.0658764025 7.8284867932 7.1468090536
49 3 1.57891463 7.8236317836 8.6082430978
44 1 3.5945884225 6.2890410768 6.3635688927
37 1 3.6150335325 7.817739062 8.9211103152
55 3 4.50780667 7.8309822435 7.1364381751
33 1 1.050922665 9.3726145672 4.5532508547
40 1 1.0315278175 10.9306279158 2.0480839606
59 3 1.97045249 10.926514129 3.7941174133
41 1 3.527541665 9.407353211 1.1379093428
50 3 4.059754685 9.6431609038 4.464042193
53 3 4.0267564375 10.9276630244 2.2722732675
45 2 3.526141315 10.9302202432 3.759915806
52 3 4.0613250775 12.2074954411 4.4721096112
42 1 1.58419595 9.3645352383 9.8554659577
36 1 1.603100675 10.9221038531 7.3082104935
61 3 0.6853012825 10.8846103311 9.0145437564
38 1 3.5800047775 9.3667218457 6.3863062741
51 3 3.617244085 9.636415776 9.7578289669
58 3 3.6294571375 10.9109608031 7.5583853791
46 2 4.1429054675 10.9078600209 9.0340010954
56 3 3.63694901 12.1843692885 9.7578183519
86 3 6.524530725 0.365126371 1.1421022772
80 2 6.0051109025 1.6487390242 1.8749104591
92 3 6.52415063 1.6475654213 3.3369601747
66 1 6.0526027725 0.1389990484 4.5546838829
95 3 6.5403646825 2.9184413954 1.1325699857
71 1 8.5318224225 0.0700458055 1.1182821634
67 1 8.6132427725 1.6726681682 3.6717155716
96 3 9.4594542725 1.6137409524 1.8232152922
89 3 6.58352547 0.3800768357 6.4159858812
75 1 6.5835754825 0.0989779566 9.8393205062
94 3 6.5963786825 2.9234322958 6.424318675
79 2 6.0690068725 1.6555335669 7.1619673078
81 3 6.5839755825 1.6427227654 8.6244628544
76 1 8.594648125 0.122936873 6.3964011619
69 1 8.64171989 1.6415615163 8.9213650757
87 3 9.5159283875 1.6430316083 7.1504500068
65 1 6.09756401 3.2102731812 4.5440476288
72 1 6.0494419825 4.7582058991 1.977058835
91 3 6.9060160725 4.8137976121 3.7128594046
73 1 8.5439854625 3.1877894217 1.1181441681
82 3 8.8823100225 3.4472544768 4.4584162302
85 3 9.001749875 4.7074815494 2.2619660792
77 2 8.4631852675 4.7387982144 3.7411059834
84 3 9.02333527 6.0198536488 4.4408165204
74 1 6.6021401225 3.1905566536 9.8335883932
68 1 6.6076615025 4.7275810421 7.3133587801
93 3 5.708926875 4.7352650522 9.0454653213
70 1 8.66232504 3.1925208942 6.3670506206
83 3 8.627176255 3.4627830953 9.7553981264
90 3 8.625015715 4.7401077081 7.558321689
78 2 9.146306005 4.737216939 9.0301796868
88 3 8.626256025 6.0107613153 9.7555148917
118 3 6.5658710575 6.5852337237 1.1380579531
112 2 6.01882433 7.8522306315 1.870908595
124 3 6.527891565 7.8639543061 3.3394653204
98 1 6.0641256525 6.3335268009 4.5437504082
127 3 6.53499334 9.1380916607 1.1434291552
103 1 8.6071812575 6.2518316903 1.1284832014
99 1 8.5580489775 7.8296974572 3.6399766498
1 3 9.456023415 7.8443366083 1.8393607437
121 3 6.58980704 6.5586361775 6.4139902567
107 1 6.6040606025 6.2802822936 9.8455196802
126 3 6.58232517 9.0995357193 6.4113789608
111 2 6.0656060225 7.8273255441 7.158050364
113 3 6.5797345225 7.8261395876 8.6188899668
108 1 8.5916573775 6.277156804 6.3782388559
101 1 8.6258659275 7.8148730004 8.9127881363
119 3 9.50849653 7.826769627 7.1261628319
97 1 6.0512824425 9.3734669735 4.5540575965
104 1 6.04038972 10.9284660158 2.0251979689
123 3 6.9647907625 10.9274530113 3.7768786143
105 1 8.551317295 9.3991256375 1.1227086284
114 3 9.0478614 9.6351433434 4.4583950002
117 3 9.0149831825 10.9196331103 2.2650656662
109 2 8.522990215 10.9226968314 3.7522199136
116 3 9.057763875 12.1963400374 4.4685111181
106 1 6.596828795 9.3683648896 9.8417938068
100 1 6.60008961 10.9210043726 7.3084121789
125 3 5.7019751375 10.8996571548 9.0312093441
102 1 8.58210499 9.3629292555 6.3823681002
115 3 8.61371289 9.623110826 9.7466938068
122 3 8.612452575 10.9066987718 7.5502118106
110 2 9.13044204 10.8981500017 9.0240548179
120 3 8.6106821325 12.1673829317 9.7534874221
