# LAMMPS data file written by OVITO Pro 3.6.0
127 atoms
3 atom types
0.0 10.0025 xlo xhi
0.0 12.353714 ylo yhi
0.0 10.615024 zlo zhi

Masses

1 7.01
2 30.974
3 32.066

Atoms  # atomic

22 3 1.4870016575 0.2177020896 1.1481422259
16 2 1.020475055 1.5631648473 1.8000957699
28 3 1.52498115 1.6206219711 3.2759768618
2 1 1.0519729275 0.1573443137 4.5421581546
31 3 1.6182344575 2.7200531022 0.9849054483
7 1 3.52452091 0.0876587426 1.1274323141
3 1 3.541785225 1.692804722 3.6472904013
32 3 4.44947209 1.6588690696 1.8360700863
25 3 1.580975145 0.3754590174 6.3938960163
11 1 1.5908276075 0.0879229885 9.8360192337
30 3 1.575053665 2.9217151296 6.3755638698
15 2 1.0652962575 1.6580784319 7.1283707569
17 3 1.5777643425 1.6429698397 8.5923417918
12 1 3.5778842475 0.1276731634 6.3895226264
5 1 3.6061713175 1.6627728433 8.9134038077
23 3 4.5112775375 1.6649470969 7.1247085736
8 1 0.971302765 3.2949702444 4.1607709573
27 3 2.040810075 4.7940563771 3.8159737477
9 1 3.5019652725 3.2504227517 1.1324532204
18 3 4.10294548 3.4766316087 4.4518561454
21 3 4.08874193 4.7595771614 2.2602252152
13 2 3.574513405 4.7713131896 3.7437809695
20 3 4.12167016 6.0589037387 4.4504549622
10 1 1.5988696175 3.2152640816 9.798537584
4 1 1.59943976 4.7412071886 7.2463461336
29 3 0.703023712 4.7458398314 8.9779006936
6 1 3.562630435 3.2000937208 6.3515208404
19 3 3.634008275 3.473296106 9.7248587024
26 3 3.6370390325 4.7522390552 7.5281962508
14 2 4.1533280725 4.7454321588 9.0053086855
24 3 3.6411200525 6.0150357003 9.7350703555
54 3 1.6348086 6.7812624574 1.0078997133
48 2 1.0317678775 7.925339911 1.8389149127
60 3 1.532723085 7.8829543183 3.3151675304
34 1 1.0413302675 6.2906099985 4.4493934598
64 3 4.4630054725 7.8546766669 1.8353694947
39 1 3.51279798 6.264024806 1.1388116198
35 1 3.5575991775 7.8345154057 3.6410912273
57 3 1.57735424 6.5795757227 6.3596201038
43 1 1.6047310825 6.2649142734 9.8220392471
62 3 1.5761839475 9.1201540679 6.3966665375
47 2 1.0632557475 7.8368996725 7.1283813719
49 3 1.5823955 7.8283756098 8.5867158291
44 1 3.58577622 6.2984793143 6.357093728
37 1 3.61118257 7.8245459585 8.9226176486
55 3 4.505466085 7.8368873188 7.133752574
33 1 1.0565140625 9.3794832322 4.5419564691
40 1 1.0045610775 10.9269959239 2.0638048112
59 3 1.973233185 10.9418945029 3.7884489905
41 1 3.5188694975 9.4170879376 1.1345231501
50 3 4.05801425 9.6556999235 4.4674390006
53 3 4.0368589625 10.9327156934 2.2719123567
45 2 3.5290720475 10.9378548385 3.7542261531
52 3 4.05953463 12.2209609894 4.463182376
63 3 1.4907225875 9.2735501347 1.1789576406
42 1 1.5795447875 9.3746405763 9.8552855023
36 1 1.6024305075 10.9263164696 7.3009710471
61 3 0.6889301895 10.9111831699 9.0064444931
38 1 3.577074045 9.3721698335 6.3880683681
51 3 3.6124528875 9.6462740398 9.7535298822
58 3 3.6239957725 10.9230303817 7.5545321254
46 2 4.1346033925 10.9189042412 9.0318356305
56 3 3.624045785 12.1965747579 9.7527868305
86 3 6.5237405275 0.3613733127 1.1416989063
80 2 6.0062511875 1.6518150989 1.8637328388
92 3 6.519889565 1.6509256315 3.3330538459
66 1 6.04743148 0.1371991123 4.5500026573
95 3 6.5500070925 2.9124127829 1.122974004
71 1 8.532152505 0.0762807249 1.103070834
67 1 8.5483465525 1.6599438428 3.6108171789
96 3 9.46064457 1.6230556527 1.7946184175
89 3 6.57832417 0.3742557656 6.4093727212
75 1 6.58308536 0.1070000878 9.8378344028
94 3 6.6079815825 2.9130551761 6.4054876225
79 2 6.069577015 1.6529763481 7.15185119
81 3 6.579744525 1.6461076831 8.614102591
76 1 8.58266513 0.1185110315 6.3804786259
69 1 8.63379791 1.6520127584 8.9040732016
87 3 9.50685612 1.6467253688 7.1171825216
65 1 6.0561036475 3.1864428669 4.5537497608
72 1 6.10236521 4.7555622043 2.0147846303
91 3 6.9048757875 4.7602689693 3.834666805
73 1 8.6122625275 3.229199071 1.0927530307
82 3 9.0174838075 3.4672180787 4.3989508658
85 3 8.8247556375 4.7502377536 2.2098038512
77 2 8.4606246275 4.7568099294 3.7087938504
84 3 9.02873662 6.029131288 4.4190026461
74 1 6.6025002125 3.2028115379 9.8291831583
68 1 6.616913815 4.7371798779 7.2866938398
93 3 5.71470832 4.7420843023 9.0045974789
70 1 8.6275063375 3.1992783757 6.345555197
83 3 8.628776655 3.4684040352 9.7166320588
90 3 8.62795645 4.7448268268 7.5202455979
78 2 9.1477963775 4.74330732 8.995362408
88 3 8.6281865075 6.0164563774 9.7199651763
118 3 6.562180135 6.5946966686 1.1281647507
112 2 6.0199046 7.8570732874 1.8666838155
124 3 6.53075228 7.8601864234 3.3369177146
98 1 6.065295945 6.3317602198 4.5537816059
127 3 6.5401646325 9.1456150725 1.1447454182
103 1 8.63531829 6.2680521167 1.0961710684
99 1 8.565480835 7.8343548074 3.6165280618
1 3 9.47216745 7.8629907164 1.8216867287
121 3 6.59200759 6.5719411274 6.4147439234
107 1 6.6026602525 6.2804675993 9.8377813277
126 3 6.57828416 9.1105428784 6.4110817401
111 2 6.0632654375 7.8375544193 7.1586766504
113 3 6.5759735825 7.8394815987 8.6194419481
108 1 8.5916773825 6.2920059682 6.3572529534
101 1 8.6261259925 7.8244965436 8.9014725208
119 3 9.5059658975 7.8370232096 7.1135097233
97 1 6.0485417575 9.371329781 4.5528899438
104 1 6.0425802675 10.927378889 2.0203681329
123 3 6.9568487775 10.9299237541 3.7823878118
105 1 8.5526676325 9.4065502196 1.1100236747
114 3 9.0513322675 9.648077682 4.4519729107
117 3 8.9944180425 10.9259335045 2.2563082714
109 2 8.5133778125 10.9284660158 3.7443117207
116 3 9.05050206 12.2116586427 4.4480771969
106 1 6.5934979625 9.3775807603 9.8425262434
100 1 6.59740894 10.9208437743 7.311522381
125 3 5.6941931925 10.9133944847 9.0309758136
102 1 8.57886418 9.3687849159 6.3759141656
115 3 8.61759386 9.6373546583 9.7373101255
122 3 8.6155633525 10.9156552144 7.5405096787
110 2 9.13404294 10.9122579431 9.0145225264
120 3 8.6109021875 12.1829362577 9.7399214214
