# LAMMPS data file written by OVITO Pro 3.6.0
127 atoms
3 atom types
0.0 10.0025 xlo xhi
0.0 12.353714 ylo yhi
0.0 10.615024 zlo zhi

Masses

1 7.01
2 30.974
3 32.066

Atoms  # atomic

22 3 1.490072425 0.2135055329 1.1350114412
16 2 1.0175043125 1.5507740721 1.7879627975
28 3 1.5187896025 1.6159152061 3.2643746406
2 1 1.051402785 0.1750867178 4.5557241552
31 3 1.6075917975 2.7298495974 0.9975957095
7 1 3.532662945 0.0868708227 1.1265724971
3 1 3.529062045 1.7010446492 3.6578523502
32 3 4.44763163 1.6620439741 1.840379786
25 3 1.5851962 0.3769723473 6.4078547728
11 1 1.5968291075 0.0678818054 9.8325693509
30 3 1.6016103025 2.9256189032 6.447724803
15 2 1.071607835 1.6560524228 7.1551206173
17 3 1.5640009025 1.6140497952 8.6278490471
12 1 3.577634185 0.1303007984 6.3929937392
5 1 3.5995896725 1.6607591879 8.9116204837
23 3 4.5154585825 1.6667878003 7.1251437896
8 1 0.8847781393 3.3916009953 3.8086493812
27 3 2.047571765 4.8161942326 3.8026200475
9 1 3.50335562 3.2511145597 1.1299162297
18 3 4.1031555325 3.4838091166 4.4512617041
21 3 4.0926128975 4.7603801528 2.2574016189
13 2 3.580895 4.7780953786 3.7419870304
20 3 4.1277216725 6.0637216872 4.4498392908
10 1 1.5946285575 3.2095566658 9.8001829127
4 1 1.6005700425 4.7363645327 7.2501144671
29 3 0.702903682 4.7461857354 8.9861697972
6 1 3.55504854 3.2014032145 6.3535058499
19 3 3.629927255 3.4721595643 9.7252514583
26 3 3.64607129 4.7580205934 7.5306058613
14 2 4.154058255 4.7452592068 9.0088647186
24 3 3.641730205 6.0140474032 9.7407812384
54 3 1.6317778425 6.7767780593 1.0139301084
48 2 1.0310476975 7.9232274259 1.8433519927
60 3 1.531402755 7.8835596502 3.3197638358
34 1 1.0416303425 6.2944520036 4.4637874324
64 3 4.4648059225 7.8519217887 1.8356030252
39 1 3.5103673725 6.2642718803 1.1404251034
35 1 3.5574591425 7.8363314016 3.6419085842
57 3 1.5800849225 6.5797733821 6.3633884373
43 1 1.605941385 6.2636541946 9.8260941863
62 3 1.57675409 9.1196475657 6.3996175142
47 2 1.0646160875 7.8364055239 7.1319374049
49 3 1.5832657175 7.8273378978 8.5903673974
44 1 3.58853691 6.2978863361 6.3587284417
37 1 3.6122328325 7.8219516785 8.9233076251
55 3 4.5061962675 7.8366896593 7.1344956257
33 1 1.0572942575 9.382732259 4.5449392909
40 1 1.0060814575 10.9247104868 2.0655456751
59 3 1.97113266 10.9486149234 3.7905719953
41 1 3.5203498675 9.4152719417 1.1361154037
50 3 4.0555836425 9.6577012252 4.4683731228
53 3 4.0348984725 10.9331110123 2.2732392347
45 2 3.52704154 10.9407456075 3.7559776321
52 3 4.058554385 12.2238764659 4.4638192775
63 3 1.4913027325 9.2701775707 1.181377866
42 1 1.58051503 9.3702550079 9.8570582113
36 1 1.6032107025 10.9271071073 7.3034231176
61 3 0.6874968312 10.9021031901 9.0080367467
38 1 3.577074045 9.3716880387 6.3888008047
51 3 3.614163315 9.6442109695 9.7547187649
58 3 3.6265564125 10.921202032 7.5556467029
46 2 4.13827431 10.915889935 9.0323451516
56 3 3.6308574875 12.1935975128 9.7548143001
86 3 6.519409445 0.3624851469 1.1418793617
80 2 6.0044907475 1.6528033961 1.8662061394
92 3 6.521129875 1.6506414961 3.3340516581
66 1 6.0465812675 0.1374597757 4.5518602865
95 3 6.5488067925 2.9138581675 1.1251394689
71 1 8.5228801875 0.0688261233 1.103070834
67 1 8.5470862375 1.6529392869 3.6233322922
96 3 9.457223715 1.6147539569 1.7891304501
89 3 6.58140494 0.3745090168 6.4093408762
75 1 6.581825045 0.1061683123 9.8360723088
94 3 6.61433317 2.9132528355 6.4042562797
79 2 6.0736080225 1.6542858417 7.1514690491
81 3 6.58380554 1.6458729625 8.614091976
76 1 8.587686385 0.1201803888 6.3863593492
69 1 8.6390692275 1.6490602207 8.9080113755
87 3 9.5114272625 1.6449217265 7.1261097568
65 1 6.057534005 3.1889630245 4.5530916293
72 1 6.089381965 4.7559451694 2.0045729772
91 3 6.9009748125 4.7654822366 3.8132563016
73 1 8.6023000375 3.2250852843 1.0915535329
82 3 9.00805145 3.4689352449 4.3971250817
85 3 8.8613647875 4.7420225338 2.2192936827
77 2 8.45515326 4.7613931573 3.709505057
84 3 9.019634345 6.0320344108 4.423800637
74 1 6.603750525 3.199266022 9.8291088531
68 1 6.61673377 4.7329302003 7.2930628542
93 3 5.7158286 4.7394900224 9.0146286766
70 1 8.6509722025 3.1991177774 6.3471368355
83 3 8.6283465475 3.4674898604 9.7222686365
90 3 8.628416565 4.744431508 7.5262749315
78 2 9.1482965025 4.7424796212 9.0011794412
88 3 8.6277063875 6.0151962986 9.7265252612
118 3 6.56692132 6.5916453013 1.1335571829
112 2 6.0217350575 7.8554425972 1.8684989846
124 3 6.5312223975 7.8621630176 3.3389239541
98 1 6.067496495 6.3343297924 4.5530916293
127 3 6.5409048175 9.1434902337 1.1450320239
103 1 8.642740145 6.263246522 1.1006612235
99 1 8.56386043 7.8389380353 3.6197868741
1 3 9.4713372425 7.8616071005 1.8260919637
121 3 6.59148746 6.5683585504 6.4155506652
107 1 6.604150625 6.279788145 9.841475356
126 3 6.579944575 9.1073062054 6.4110605101
111 2 6.06387559 7.8349354319 7.1591118664
113 3 6.5769138175 7.8360596199 8.6197922439
108 1 8.5908771825 6.2911659156 6.3648426956
101 1 8.6264860825 7.8217293117 8.9040519716
119 3 9.507196205 7.8358248993 7.1164394699
97 1 6.047331455 9.3724910301 4.5543548172
104 1 6.0411099 10.9256864302 2.0223212974
123 3 6.95765898 10.9302325969 3.7828017977
105 1 8.5530077175 9.4045242105 1.1118282288
114 3 9.05142229 9.6472746906 4.4539366901
117 3 8.9962384975 10.9254887707 2.2585798865
109 2 8.514388065 10.9280089284 3.746647026
116 3 9.0512722525 12.2105468085 4.4514633895
106 1 6.5947582775 9.3740352443 9.8427491589
100 1 6.598749275 10.9205225777 7.310227348
125 3 5.69766406 10.9087371346 9.0306149027
102 1 8.57986443 9.3673889462 6.3776337995
115 3 8.615893435 9.6326849544 9.7390191444
122 3 8.614893185 10.913036227 7.5422717727
110 2 9.13284264 10.9074276409 9.0163270804
120 3 8.60995195 12.1772288418 9.7433076141
