# LAMMPS data file written by OVITO Pro 3.6.0
127 atoms
3 atom types
0.0 10.0025 xlo xhi
0.0 12.353714 ylo yhi
0.0 10.615024 zlo zhi

Masses

1 7.01
2 30.974
3 32.066

Atoms  # atomic

22 3 1.5007851025 0.248025516 1.0874455187
16 2 1.012072955 1.5330094314 1.8172071886
28 3 1.5321329375 1.5605211525 3.2661155045
2 1 1.05274312 0.1919359483 4.5826544711
31 3 1.549127185 2.8125947738 1.1045675524
7 1 3.541025035 0.0867901529 1.1278038399
3 1 3.4944734 1.7147572718 3.6780633559
32 3 4.445491095 1.6645641318 1.8418871194
25 3 1.5915477875 0.3772391876 6.4392964739
11 1 1.60500115 0.0401888553 9.8157763829
30 3 1.63456854 2.9258289163 6.5420180612
15 2 1.0774192875 1.6522845401 7.1969119668
17 3 1.54370583 1.5881687644 8.6815292235
12 1 3.57753416 0.1296794066 6.3979509554
5 1 3.5893871225 1.6572260257 8.909975155
23 3 4.5150984925 1.6638723238 7.1343682454
8 1 0.824550086 3.8720492864 2.7926005139
27 3 2.0484019725 4.8387891755 3.7585676979
9 1 3.521060045 3.2454812661 1.1321666148
18 3 4.1055761375 3.4957675117 4.4498711359
21 3 4.094363335 4.7589965368 2.2480497827
13 2 3.58109505 4.7822215191 3.7353314104
20 3 4.127331575 6.065154718 4.4484168776
10 1 1.5810651675 3.194818685 9.8337370036
4 1 1.6014902725 4.7283963872 7.267300191
29 3 0.701755395 4.742183132 9.0108709581
6 1 3.552027785 3.2011932014 6.3559154604
19 3 3.615883745 3.4687252318 9.7390722195
26 3 3.65443338 4.7596389299 7.5423779229
14 2 4.148616895 4.7419484115 9.0224837944
24 3 3.6367389575 6.0123920055 9.7527443704
54 3 1.6132132025 6.7416440967 1.0391269909
48 2 1.0249261675 7.9072293663 1.8550709792
60 3 1.5237308375 7.875146771 3.3309839162
34 1 1.04218048 6.2753531617 4.503413317
63 3 1.49321321 9.2467425753 1.1821739928
39 1 3.5068765 6.2655813739 1.1435989956
35 1 3.553348115 7.8327611783 3.6442438894
64 3 4.467416575 7.8438918746 1.8334587904
57 3 1.5859964 6.5735100491 6.3788226822
43 1 1.605221205 6.2644448323 9.8351488017
62 3 1.5783044775 9.1131248047 6.4054345473
47 2 1.06634652 7.8319458331 7.1408752551
49 3 1.5821454375 7.8251883516 8.6006108955
44 1 3.5936681925 6.2915365271 6.3635688927
37 1 3.613803225 7.8178749529 8.9238489913
55 3 4.507506595 7.8328723617 7.1370113864
33 1 1.0546535975 9.3800515031 4.5497585118
40 1 1.0202249925 10.9318138723 2.0588051348
59 3 1.969832335 10.9427839703 3.7945101692
41 1 3.5239307625 9.4095027572 1.138907155
50 3 4.0566139 9.6517714425 4.4664411884
53 3 4.0298172025 10.9307267455 2.2736213755
45 2 3.5256111825 10.9377930699 3.7593850548
52 3 4.0598247025 12.2178354997 4.4685535782
42 1 1.58195539 9.3646093606 9.8584275494
36 1 1.603740835 10.9229933205 7.3062042539
61 3 0.6850142107 10.8881064322 9.0107329628
38 1 3.5786844475 9.3677348502 6.3872510112
51 3 3.6163138525 9.6396400953 9.7575742064
58 3 3.6298972475 10.9136044979 7.5570478861
46 2 4.1430455025 10.9095648334 9.0327485226
56 3 3.638409375 12.1879271581 9.7551752109
86 3 6.51526841 0.3651140173 1.1404038734
80 2 6.0027003 1.6524451384 1.8721080927
92 3 6.5236204975 1.6489984521 3.3349751652
66 1 6.0495019975 0.1394054856 4.5533357748
95 3 6.54459574 2.9180460765 1.129608394
71 1 8.5140579825 0.060526157 1.1102359752
67 1 8.592607615 1.6628593193 3.6634676979
96 3 9.4510521725 1.5983235173 1.8018366339
89 3 6.5832454 0.3778914637 6.4127058388
75 1 6.58076478 0.101843277 9.8351912618
94 3 6.6074614525 2.9195038148 6.4133639703
79 2 6.07299787 1.6562994971 7.1562351949
81 3 6.586226145 1.6445634688 8.618953657
76 1 8.59326778 0.1229492268 6.3952122792
69 1 8.6424100625 1.6427968877 8.9172889065
87 3 9.5165085325 1.6430810231 7.1454927906
65 1 6.0807198 3.2029227214 4.5448649857
72 1 6.0569438575 4.7579217637 1.9808059385
91 3 6.9083566575 4.7941675606 3.7336117765
73 1 8.5590692325 3.1982159563 1.1014042752
82 3 8.9430452025 3.4557291246 4.4323669613
85 3 8.9984390475 4.7045537192 2.2620722294
77 2 8.4641255025 4.7469516656 3.7361169222
84 3 9.01393292 6.0297119125 4.4386085955
74 1 6.6037805325 3.1918167325 9.8303720409
68 1 6.610952325 4.726938649 7.3091233855
93 3 5.7107973425 4.7327078334 9.0392130722
70 1 8.6735978575 3.1959058118 6.3568071224
83 3 8.627576355 3.4633637199 9.7435199146
90 3 8.6256058625 4.7417013372 7.548152496
78 2 9.1477363625 4.7385882013 9.0204244797
88 3 8.62759636 6.0105760096 9.7480631448
118 3 6.5760736075 6.5839489374 1.1421447373
112 2 6.02466579 7.8512052733 1.87091921
124 3 6.5310223475 7.8640160747 3.3411637242
98 1 6.06963703 6.3334403249 4.5461600186
127 3 6.54099484 9.1379063549 1.1440554416
103 1 8.6413698025 6.2463713487 1.1231650744
99 1 8.5607296475 7.8370232096 3.6318243114
1 3 9.464785605 7.8518723738 1.8351253491
121 3 6.5896570025 6.5597603654 6.4152003694
107 1 6.60573102 6.2786886645 9.8475683798
126 3 6.582065105 9.1002151735 6.4115700312
111 2 6.0651159 7.8282644264 7.1590800213
113 3 6.5796745075 7.8271896533 8.6196542486
108 1 8.5907171425 6.2834077833 6.3777293347
101 1 8.6269662025 7.8157624678 8.9108031268
119 3 9.5087866025 7.8302533743 7.1232861604
97 1 6.0487218025 9.3730098861 4.5551403289
104 1 6.0397195525 10.9246363645 2.0256119548
123 3 6.9612098675 10.928503077 3.7799994314
105 1 8.554358055 9.4001633495 1.1184201587
114 3 9.0488716525 9.6390224096 4.4566329062
117 3 9.006511065 10.9229809668 2.2638343234
109 2 8.5189191975 10.9245375348 3.7516254722
116 3 9.054483055 12.2001326276 4.4654433761
106 1 6.5971988875 9.368216645 9.8422396378
100 1 6.599789535 10.9201272589 7.3077540474
125 3 5.70206516 10.900509561 9.0304450624
102 1 8.5816348725 9.36394226 6.3806060062
115 3 8.6142630275 9.6246179791 9.7433819193
122 3 8.6121024875 10.9081812174 7.5469105382
110 2 9.1303520175 10.8995706788 9.020562475
120 3 8.60887168 12.1682106306 9.7502710698
