# LAMMPS data file written by OVITO Pro 3.6.0
127 atoms
3 atom types
0.0 10.0025 xlo xhi
0.0 12.353714 ylo yhi
0.0 10.615024 zlo zhi

Masses

1 7.01
2 30.974
3 32.066

Atoms  # atomic

22 3 1.4896223125 0.2185297884 1.1872055142
16 2 1.0315278175 1.5695764248 1.8420781898
28 3 1.5339733975 1.61972015 3.3178637465
2 1 1.0557938825 0.1236643833 4.5447482204
31 3 1.63572883 2.7108742927 1.0083466058
7 1 3.5177292125 0.0775101665 1.1446074229
3 1 3.5585394125 1.6704939145 3.6530755894
32 3 4.45999472 1.6409438306 1.8472052464
25 3 1.5743034775 0.3659194794 6.4013371481
11 1 1.577934385 0.105174456 9.8646267234
30 3 1.5714027525 2.9071377471 6.3693116207
15 2 1.05950481 1.6472565785 7.1350157619
17 3 1.5797648425 1.6528404572 8.5931909937
12 1 3.5765839225 0.1146665557 6.3975051244
5 1 3.6084118775 1.6575842834 8.9335405083
23 3 4.5033555575 1.6494308321 7.1446223586
8 1 1.04474112 3.216585929 4.4502426618
27 3 2.037769315 4.7409724681 3.8785068541
9 1 3.5125879275 3.2363024566 1.1523882355
18 3 4.1161787875 3.4476003808 4.4744449165
21 3 4.0764088475 4.7409724681 2.2885885594
13 2 3.569672195 4.7409724681 3.7750316001
20 3 4.1161787875 6.0343445553 4.4744449165
10 1 1.60196039 3.2182042656 9.8225593833
4 1 1.5991096775 4.7409724681 7.2584154159
29 3 0.7000119592 4.7409724681 8.9832082056
6 1 3.5782643425 3.1885429983 6.3722413673
19 3 3.6387994725 3.470010018 9.7409192337
26 3 3.6255161525 4.7409724681 7.5398727772
14 2 4.1509074675 4.7409724681 9.0144269911
24 3 3.6387994725 6.0119349181 9.7409192337
54 3 1.63572883 6.7710582897 1.0083466058
48 2 1.0315278175 7.9123685113 1.8420781898
60 3 1.5339733975 7.8622247862 3.3178637465
34 1 1.04474112 6.2653590071 4.4502426618
63 3 1.4896223125 9.2634077355 1.1872055142
39 1 3.5125879275 6.2456424796 1.1523882355
35 1 3.5585394125 7.8114510216 3.6530755894
64 3 4.45999472 7.8410011055 1.8472052464
57 3 1.5714027525 6.5748071891 6.3693116207
43 1 1.60196039 6.2637406706 9.8225593833
62 3 1.5743034775 9.1160279275 6.4013371481
47 2 1.05950481 7.8346883577 7.1350157619
49 3 1.5797648425 7.8291044789 8.5931909937
44 1 3.5782643425 6.2934019379 6.3722413673
37 1 3.6084118775 7.8243606528 8.9335405083
55 3 4.5033555575 7.832514104 7.1446223586
33 1 1.0557938825 9.358284259 4.5447482204
40 1 1.0059014125 10.9178294681 2.0739421591
59 3 1.9790446375 10.9178294681 3.7962616481
41 1 3.5177292125 9.4044377345 1.1446074229
50 3 4.063795695 9.6354892474 4.4747527522
53 3 4.0427804425 10.9178294681 2.2804892961
45 2 3.5350135325 10.9178294681 3.7625377169
52 3 4.063795695 12.2001696887 4.4747527522
42 1 1.577934385 9.3767654151 9.8646267234
36 1 1.60007992 10.9178294681 7.3129235641
61 3 0.6902675238 10.9178294681 9.0197451182
38 1 3.5765839225 9.3672777628 6.3975051244
51 3 3.6095721675 9.6426420478 9.7666500519
58 3 3.619404625 10.9178294681 7.5678539805
46 2 4.1270014925 10.9178294681 9.0463251383
56 3 3.6095721675 12.1930168883 9.7666500519
86 3 6.5394044425 0.3515434624 1.1562096441
80 2 6.0168738425 1.6400049484 1.8769485437
92 3 6.5295419775 1.641487394 3.346810917
66 1 6.0529228525 0.1248194555 4.5601718503
95 3 6.554858305 2.9028880694 1.1363277042
71 1 8.55273765 0.0830141167 1.1181866282
67 1 8.5690317225 1.6660836386 3.6222070996
96 3 9.47180736 1.631036152 1.8241600293
89 3 6.5736530025 0.367960313 6.4241700647
75 1 6.58868676 0.1022332837 9.8559330187
94 3 6.594428195 2.9058653145 6.4267176705
79 2 6.0612049225 1.6425868746 7.1706610125
81 3 6.57232267 1.6387942844 8.6320632116
76 1 8.5765536025 0.1125574061 6.3836419031
69 1 8.6229652025 1.6540634749 8.910410371
87 3 9.5023649975 1.6445017003 7.1218531321
65 1 6.061294945 3.1664422039 4.5726869636
72 1 6.120789815 4.7409724681 2.0536886933
91 3 6.9173989175 4.7409724681 3.8858206056
73 1 8.621894935 3.225011162 1.1066480971
82 3 9.0435903325 3.4604111823 4.4301059612
85 3 8.7955683425 4.7409724681 2.2271700305
77 2 8.4737179 4.7409724681 3.7361806123
84 3 9.0435903325 6.0215214002 4.4301059612
74 1 6.5977390225 3.2041704465 9.8434285205
68 1 6.6132529 4.7409724681 7.2891459104
93 3 5.7118175975 4.7409724681 9.0042684132
70 1 8.5942180175 3.1916684879 6.3617961837
83 3 8.6254858325 3.4668474672 9.7238396601
90 3 8.62459561 4.7409724681 7.5254894197
78 2 9.144305505 4.7409724681 9.000659305
88 3 8.6254858325 6.0150974689 9.7238396601
118 3 6.554858305 6.5790568667 1.1363277042
112 2 6.0168738425 7.8419399878 1.8769485437
124 3 6.5295419775 7.8404451884 3.346810917
98 1 6.061294945 6.3155027322 4.5726869636
127 3 6.5394044425 9.1303952968 1.1562096441
103 1 8.621894935 6.2569337741 1.1066480971
99 1 8.5690317225 7.8158612975 3.6222070996
1 3 9.47180736 7.8509087841 1.8241600293
121 3 6.594428195 6.5760796216 6.4267176705
107 1 6.5977390225 6.2777744897 9.8434285205
126 3 6.5736530025 9.1139772109 6.4241700647
111 2 6.0612049225 7.8393580616 7.1706610125
113 3 6.57232267 7.8431506517 8.6320632116
108 1 8.5942180175 6.2902764482 6.3617961837
101 1 8.6229652025 7.8278814612 8.910410371
119 3 9.5023649975 7.8374432359 7.1218531321
97 1 6.0529228525 9.3571230099 4.5601718503
104 1 6.0485217525 10.9178294681 2.0268751427
123 3 6.95805908 10.9178294681 3.7899350938
105 1 8.55273765 9.3989279781 1.1181866282
114 3 9.052002435 9.6359092737 4.4560384649
117 3 8.9954483 10.9178294681 2.2624331402
109 2 8.51440807 10.9178294681 3.7502773642
116 3 9.052002435 12.1997496624 4.4560384649
106 1 6.58868676 9.3797055991 9.8559330187
100 1 6.59368801 10.9178294681 7.3293768513
125 3 5.6870113975 10.9178294681 9.0481084623
102 1 8.5765536025 9.3693902479 6.3836419031
115 3 8.6156033625 9.6444209827 9.7483922106
122 3 8.6169236925 10.9178294681 7.5510079374
110 2 9.13540328 10.9178294681 9.0251269353
120 3 8.6156033625 12.1912255998 9.7483922106
