ITEM: TIMESTEP
11181
ITEM: NUMBER OF ATOMS
127
ITEM: BOX BOUNDS pp pp pp
0.0000000000000000e+00 1.0002500000000000e+01
0.0000000000000000e+00 1.2353714000000000e+01
0.0000000000000000e+00 1.0615024000000000e+01
ITEM: ATOMS id type xs ys zs
22 3 0.148925 0.0176894 0.111842
16 2 0.103127 0.127053 0.173535
28 3 0.153359 0.131112 0.312563
2 1 0.105553 0.0100103 0.428143
31 3 0.163532 0.219438 0.0949924
7 1 0.351685 0.00627424 0.107829
3 1 0.355765 0.135222 0.344142
32 3 0.445888 0.13283 0.174018
25 3 0.157391 0.0296202 0.603045
11 1 0.157754 0.00851359 0.929308
30 3 0.157101 0.235325 0.600028
15 2 0.105924 0.133341 0.672162
17 3 0.157937 0.133793 0.809531
12 1 0.357569 0.00928195 0.602684
5 1 0.360751 0.134177 0.841594
23 3 0.450223 0.133517 0.673067
8 1 0.104448 0.260374 0.41924
27 3 0.203726 0.383769 0.365379
9 1 0.351171 0.26197 0.108562
18 3 0.411515 0.279074 0.42152
21 3 0.407539 0.383769 0.215599
13 2 0.356878 0.383769 0.355631
20 3 0.411515 0.488464 0.42152
10 1 0.160156 0.260505 0.925345
4 1 0.159871 0.383769 0.683787
29 3 0.0699837 0.383769 0.846273
6 1 0.357737 0.258104 0.600304
19 3 0.363789 0.280888 0.917654
26 3 0.362461 0.383769 0.710302
14 2 0.414987 0.383769 0.849214
24 3 0.363789 0.48665 0.917654
54 3 0.163532 0.548099 0.0949924
48 2 0.103127 0.640485 0.173535
60 3 0.153359 0.636426 0.312563
34 1 0.104448 0.507164 0.41924
63 3 0.148925 0.749848 0.111842
39 1 0.351171 0.505568 0.108562
35 1 0.355765 0.632316 0.344142
64 3 0.445888 0.634708 0.174018
57 3 0.157101 0.532213 0.600028
43 1 0.160156 0.507033 0.925345
62 3 0.157391 0.737918 0.603045
47 2 0.105924 0.634197 0.672162
49 3 0.157937 0.633745 0.809531
44 1 0.357737 0.509434 0.600304
37 1 0.360751 0.633361 0.841594
55 3 0.450223 0.634021 0.673067
33 1 0.105553 0.757528 0.428143
40 1 0.100565 0.883769 0.195378
59 3 0.197855 0.883769 0.357631
41 1 0.351685 0.761264 0.107829
50 3 0.406278 0.779967 0.421549
53 3 0.404177 0.883769 0.214836
45 2 0.353413 0.883769 0.354454
52 3 0.406278 0.987571 0.421549
42 1 0.157754 0.759024 0.929308
36 1 0.159968 0.883769 0.688922
61 3 0.0690095 0.883769 0.849715
38 1 0.357569 0.758256 0.602684
51 3 0.360867 0.780546 0.920078
58 3 0.36185 0.883769 0.712938
46 2 0.412597 0.883769 0.852219
56 3 0.360867 0.986992 0.920078
86 3 0.653777 0.0284565 0.108922
80 2 0.601537 0.132754 0.17682
92 3 0.652791 0.132874 0.31529
66 1 0.605141 0.0101038 0.429596
95 3 0.655322 0.234981 0.107049
71 1 0.85506 0.00671977 0.10534
67 1 0.856689 0.134865 0.341234
96 3 0.946944 0.132028 0.171847
89 3 0.657201 0.0297854 0.605196
75 1 0.658704 0.00827551 0.928489
94 3 0.659278 0.235222 0.605436
79 2 0.605969 0.132963 0.67552
81 3 0.657068 0.132656 0.813193
76 1 0.857441 0.00911122 0.601378
69 1 0.862081 0.133892 0.839415
87 3 0.949999 0.133118 0.670922
65 1 0.605978 0.256315 0.430775
72 1 0.611926 0.383769 0.19347
91 3 0.691567 0.383769 0.366068
73 1 0.861974 0.261056 0.104253
82 3 0.904133 0.280111 0.417343
85 3 0.879337 0.383769 0.209813
77 2 0.84716 0.383769 0.351971
84 3 0.904133 0.487426 0.417343
74 1 0.659609 0.259369 0.927311
68 1 0.66116 0.383769 0.686682
93 3 0.571039 0.383769 0.848257
70 1 0.859207 0.258357 0.59932
83 3 0.862333 0.280632 0.916045
90 3 0.862244 0.383769 0.708947
78 2 0.914202 0.383769 0.847917
88 3 0.862333 0.486906 0.916045
118 3 0.655322 0.532557 0.107049
112 2 0.601537 0.634784 0.17682
124 3 0.652791 0.634663 0.31529
98 1 0.605978 0.511223 0.430775
127 3 0.653777 0.739081 0.108922
103 1 0.861974 0.506482 0.104253
99 1 0.856689 0.632673 0.341234
1 3 0.946944 0.63551 0.171847
121 3 0.659278 0.532316 0.605436
107 1 0.659609 0.508169 0.927311
126 3 0.657201 0.737752 0.605196
111 2 0.605969 0.634575 0.67552
113 3 0.657068 0.634882 0.813193
108 1 0.859207 0.509181 0.59932
101 1 0.862081 0.633646 0.839415
119 3 0.949999 0.63442 0.670922
97 1 0.605141 0.757434 0.429596
104 1 0.604701 0.883769 0.190944
123 3 0.695632 0.883769 0.357035
105 1 0.85506 0.760818 0.10534
114 3 0.904974 0.780001 0.419786
117 3 0.89932 0.883769 0.213135
109 2 0.851228 0.883769 0.353299
116 3 0.904974 0.987537 0.419786
106 1 0.658704 0.759262 0.928489
100 1 0.659204 0.883769 0.690472
125 3 0.568559 0.883769 0.852387
102 1 0.857441 0.758427 0.601378
115 3 0.861345 0.78069 0.918358
122 3 0.861477 0.883769 0.711351
110 2 0.913312 0.883769 0.850222
120 3 0.861345 0.986847 0.918358
