ITEM: TIMESTEP
11181
ITEM: NUMBER OF ATOMS
127
ITEM: BOX BOUNDS pp pp pp
0.0000000000000000e+00 1.0002500000000000e+01
0.0000000000000000e+00 1.2353714000000000e+01
0.0000000000000000e+00 1.0615024000000000e+01
ITEM: ATOMS id type xs ys zs
22 3 0.150041 0.020077 0.102444
16 2 0.101182 0.124093 0.171192
28 3 0.153175 0.12632 0.307688
2 1 0.105248 0.0155367 0.431714
31 3 0.154874 0.227672 0.104057
7 1 0.354014 0.00702543 0.106246
3 1 0.34936 0.138805 0.346496
32 3 0.444438 0.134742 0.173517
25 3 0.159115 0.0305365 0.606621
11 1 0.16046 0.00325318 0.924706
30 3 0.163416 0.236838 0.616298
15 2 0.107715 0.133748 0.677993
17 3 0.154332 0.128558 0.817853
12 1 0.357664 0.0104972 0.602726
5 1 0.358849 0.134148 0.839374
23 3 0.451397 0.134686 0.672101
8 1 0.0824344 0.313432 0.26308
27 3 0.204789 0.391687 0.35408
9 1 0.352018 0.262713 0.106657
18 3 0.410455 0.282973 0.419205
21 3 0.409334 0.385228 0.21178
13 2 0.35802 0.387108 0.351891
20 3 0.41263 0.490958 0.419068
10 1 0.158067 0.258612 0.926398
4 1 0.160109 0.382751 0.684624
29 3 0.070158 0.383867 0.848879
6 1 0.355114 0.259128 0.598766
19 3 0.361498 0.280784 0.91748
26 3 0.365352 0.38528 0.710538
14 2 0.414758 0.383848 0.849973
24 3 0.363583 0.486687 0.918768
54 3 0.161281 0.545718 0.0978921
48 2 0.102467 0.640069 0.174759
60 3 0.152335 0.637472 0.313799
34 1 0.104192 0.507973 0.424249
63 3 0.149284 0.748499 0.111368
39 1 0.3506 0.507182 0.107734
35 1 0.355246 0.634041 0.34331
64 3 0.44663 0.634942 0.172723
57 3 0.15856 0.532108 0.600924
43 1 0.160482 0.50709 0.926531
62 3 0.157791 0.737683 0.603431
47 2 0.106608 0.633975 0.672714
49 3 0.158175 0.633428 0.81023
44 1 0.359277 0.509283 0.599487
37 1 0.36129 0.632836 0.840681
55 3 0.450638 0.63405 0.67235
33 1 0.105439 0.75929 0.428615
40 1 0.101997 0.884901 0.193952
59 3 0.196934 0.885789 0.357466
41 1 0.352305 0.761674 0.107292
50 3 0.40556 0.781285 0.420766
53 3 0.402881 0.884813 0.214189
45 2 0.352473 0.885385 0.354157
52 3 0.405881 0.989001 0.420965
42 1 0.158156 0.75804 0.928724
36 1 0.160334 0.884187 0.688289
61 3 0.0684843 0.881363 0.848866
38 1 0.357779 0.758293 0.601718
51 3 0.361541 0.780303 0.919223
58 3 0.362899 0.883427 0.71192
46 2 0.414201 0.8831 0.85094
56 3 0.36375 0.98658 0.918997
86 3 0.651364 0.029555 0.107433
80 2 0.60012 0.133761 0.176364
92 3 0.652199 0.133482 0.314175
66 1 0.604799 0.0112845 0.428952
95 3 0.654296 0.236208 0.106416
71 1 0.851193 0.00489943 0.104591
67 1 0.859046 0.134604 0.345121
96 3 0.944869 0.12938 0.169744
89 3 0.65816 0.0305893 0.604116
75 1 0.657912 0.00824394 0.926535
94 3 0.660581 0.236326 0.604178
79 2 0.607148 0.134073 0.674161
81 3 0.658458 0.133123 0.811958
76 1 0.859112 0.00995241 0.602468
69 1 0.864025 0.13298 0.840063
87 3 0.951413 0.133003 0.673149
65 1 0.60792 0.259268 0.428154
72 1 0.605543 0.385141 0.186604
91 3 0.690663 0.388075 0.351729
73 1 0.855693 0.258887 0.103759
82 3 0.894081 0.279732 0.417556
85 3 0.899619 0.380821 0.213101
77 2 0.846201 0.384253 0.351965
84 3 0.901168 0.488089 0.418144
74 1 0.660213 0.258369 0.926081
68 1 0.66093 0.382633 0.688564
93 3 0.570937 0.3831 0.851549
70 1 0.867143 0.2587 0.59885
83 3 0.862542 0.28035 0.917899
90 3 0.862345 0.383828 0.711082
78 2 0.914545 0.383576 0.849779
88 3 0.862544 0.48654 0.918327
118 3 0.657443 0.532953 0.107597
112 2 0.602316 0.635534 0.176252
124 3 0.652939 0.636571 0.314758
98 1 0.606812 0.512675 0.428276
127 3 0.653936 0.739689 0.107777
103 1 0.863921 0.505627 0.105809
99 1 0.855859 0.634386 0.34214
1 3 0.946242 0.635588 0.17288
121 3 0.658801 0.530995 0.604351
107 1 0.660408 0.508243 0.927701
126 3 0.658042 0.736638 0.604009
111 2 0.60636 0.633677 0.674429
113 3 0.657803 0.63359 0.812024
108 1 0.858857 0.508625 0.600821
101 1 0.862481 0.632665 0.839452
119 3 0.950641 0.633838 0.671057
97 1 0.604721 0.75872 0.429122
104 1 0.603821 0.88432 0.190825
123 3 0.695947 0.884633 0.356099
105 1 0.855222 0.760918 0.105362
114 3 0.904661 0.780253 0.419842
117 3 0.900426 0.884186 0.213267
109 2 0.851679 0.884312 0.353426
116 3 0.905222 0.987568 0.420672
106 1 0.659555 0.758332 0.927199
100 1 0.659814 0.883955 0.688435
125 3 0.570064 0.882367 0.850723
102 1 0.857949 0.757986 0.601092
115 3 0.861211 0.779087 0.917886
122 3 0.860995 0.882988 0.710965
110 2 0.912807 0.882291 0.849792
120 3 0.860672 0.984984 0.918535
