ITEM: TIMESTEP
11181
ITEM: NUMBER OF ATOMS
127
ITEM: BOX BOUNDS pp pp pp
0.0000000000000000e+00 1.0002500000000000e+01
0.0000000000000000e+00 1.2353714000000000e+01
0.0000000000000000e+00 1.0615024000000000e+01
ITEM: ATOMS id type xs ys zs
22 3 0.148663 0.0176224 0.108162
16 2 0.102022 0.126534 0.16958
28 3 0.15246 0.131185 0.308617
2 1 0.105171 0.0127366 0.427899
31 3 0.161783 0.220181 0.0927841
7 1 0.352364 0.00709574 0.106211
3 1 0.35409 0.137028 0.343597
32 3 0.444836 0.134281 0.172969
25 3 0.158058 0.0303924 0.602344
11 1 0.159043 0.00711713 0.926613
30 3 0.157466 0.236505 0.600617
15 2 0.106503 0.134217 0.671536
17 3 0.157737 0.132994 0.809451
12 1 0.357699 0.0103348 0.601932
5 1 0.360527 0.134597 0.839697
23 3 0.451015 0.134773 0.671191
8 1 0.097106 0.266719 0.39197
27 3 0.20403 0.388066 0.359488
9 1 0.350109 0.263113 0.106684
18 3 0.410192 0.281424 0.419392
21 3 0.408772 0.385275 0.212927
13 2 0.357362 0.386225 0.352687
20 3 0.412064 0.490452 0.41926
10 1 0.159847 0.260267 0.923082
4 1 0.159904 0.383788 0.68265
29 3 0.0702848 0.384163 0.845773
6 1 0.356174 0.259039 0.598352
19 3 0.36331 0.281154 0.916141
26 3 0.363613 0.384681 0.709202
14 2 0.415229 0.38413 0.848355
24 3 0.364021 0.486901 0.917103
54 3 0.16344 0.548925 0.0949503
48 2 0.103151 0.641535 0.173237
60 3 0.153234 0.638104 0.312309
34 1 0.104107 0.509208 0.41916
64 3 0.446189 0.635815 0.172903
39 1 0.351192 0.507056 0.107283
35 1 0.355671 0.634183 0.343013
57 3 0.157696 0.532599 0.599115
43 1 0.160433 0.507128 0.925296
62 3 0.157579 0.738252 0.602605
47 2 0.106299 0.634376 0.671537
49 3 0.1582 0.633686 0.808921
44 1 0.358488 0.509845 0.598877
37 1 0.361028 0.633376 0.840565
55 3 0.450434 0.634375 0.672043
33 1 0.105625 0.759244 0.42788
40 1 0.100431 0.884511 0.194423
59 3 0.197274 0.885717 0.356895
41 1 0.351799 0.762288 0.106879
50 3 0.4057 0.781603 0.42086
53 3 0.403585 0.884974 0.214028
45 2 0.352819 0.88539 0.353671
52 3 0.405852 0.989254 0.420459
63 3 0.149035 0.750669 0.111065
42 1 0.157915 0.758852 0.928428
36 1 0.160203 0.884456 0.687796
61 3 0.0688758 0.883231 0.848462
38 1 0.357618 0.758652 0.601795
51 3 0.361155 0.78084 0.918842
58 3 0.362309 0.88419 0.711683
46 2 0.413357 0.883856 0.850854
56 3 0.362314 0.98728 0.918772
86 3 0.652211 0.0292522 0.107555
80 2 0.600475 0.13371 0.175575
92 3 0.651826 0.133638 0.313994
66 1 0.604592 0.0111059 0.428638
95 3 0.654837 0.235752 0.105791
71 1 0.853002 0.00617472 0.103916
67 1 0.854621 0.134368 0.340161
96 3 0.945828 0.131382 0.169064
89 3 0.657668 0.030295 0.603802
75 1 0.658144 0.00866137 0.926784
94 3 0.660633 0.235804 0.603436
79 2 0.606806 0.133804 0.673748
81 3 0.65781 0.133248 0.811501
76 1 0.858052 0.00959315 0.60108
69 1 0.863164 0.133726 0.838818
87 3 0.950448 0.133298 0.670482
65 1 0.605459 0.257934 0.428991
72 1 0.610084 0.38495 0.189805
91 3 0.690315 0.385331 0.361249
73 1 0.861011 0.261395 0.102944
82 3 0.901523 0.280662 0.414408
85 3 0.882255 0.384519 0.208177
77 2 0.845851 0.385051 0.349391
84 3 0.902648 0.488042 0.416297
74 1 0.660085 0.259259 0.925969
68 1 0.661526 0.383462 0.686451
93 3 0.571328 0.383859 0.848288
70 1 0.862535 0.258973 0.59779
83 3 0.862662 0.280758 0.915366
90 3 0.86258 0.384081 0.708453
78 2 0.914551 0.383958 0.847418
88 3 0.862603 0.487016 0.91568
118 3 0.656054 0.533823 0.10628
112 2 0.60184 0.636009 0.175853
124 3 0.652912 0.636261 0.314358
98 1 0.606378 0.512539 0.428994
127 3 0.653853 0.740313 0.107842
103 1 0.863316 0.507382 0.103266
99 1 0.856334 0.63417 0.340699
1 3 0.94698 0.636488 0.171614
121 3 0.659036 0.531981 0.604308
107 1 0.660101 0.508387 0.926779
126 3 0.657664 0.737474 0.603963
111 2 0.606175 0.634429 0.674391
113 3 0.657433 0.634585 0.812004
108 1 0.858953 0.509321 0.598892
101 1 0.862397 0.633372 0.838573
119 3 0.950359 0.634386 0.670136
97 1 0.604703 0.758584 0.42891
104 1 0.604107 0.884542 0.190331
123 3 0.695511 0.884748 0.356324
105 1 0.855053 0.761435 0.104571
114 3 0.904907 0.780986 0.419403
117 3 0.899217 0.884425 0.212558
109 2 0.851125 0.88463 0.352737
116 3 0.904824 0.988501 0.419036
106 1 0.659185 0.75909 0.927226
100 1 0.659576 0.884013 0.68879
125 3 0.569277 0.88341 0.850773
102 1 0.857672 0.758378 0.60065
115 3 0.861544 0.780118 0.917314
122 3 0.861341 0.883593 0.710362
110 2 0.913176 0.883318 0.849223
120 3 0.860875 0.986176 0.91756
