ITEM: TIMESTEP
11181
ITEM: NUMBER OF ATOMS
127
ITEM: BOX BOUNDS pp pp pp
0.0000000000000000e+00 1.0002500000000000e+01
0.0000000000000000e+00 1.2353714000000000e+01
0.0000000000000000e+00 1.0615024000000000e+01
ITEM: ATOMS id type xs ys zs
22 3 0.14943 0.0221437 0.10129
16 2 0.101952 0.125558 0.17331
28 3 0.156683 0.122799 0.308096
2 1 0.1058 0.0148123 0.431819
31 3 0.155466 0.229524 0.105184
7 1 0.352814 0.00718701 0.106739
3 1 0.349475 0.138696 0.346786
32 3 0.444716 0.134072 0.173436
25 3 0.15898 0.0304086 0.606961
11 1 0.160077 0.00332798 0.924786
30 3 0.163719 0.236828 0.617368
15 2 0.107648 0.133601 0.678373
17 3 0.154231 0.128224 0.818277
12 1 0.357528 0.0102586 0.602791
5 1 0.358688 0.133736 0.839587
23 3 0.451009 0.134209 0.672711
8 1 0.0919061 0.342202 0.226582
27 3 0.204166 0.391203 0.352468
9 1 0.354178 0.261562 0.106237
18 3 0.410567 0.283072 0.419193
21 3 0.408681 0.384856 0.211234
13 2 0.357548 0.386727 0.351599
20 3 0.411867 0.49071 0.418791
10 1 0.158456 0.25772 0.926217
4 1 0.160104 0.382488 0.68559
29 3 0.0700806 0.383718 0.850121
6 1 0.355388 0.25895 0.598916
19 3 0.36152 0.280702 0.917628
26 3 0.365397 0.38533 0.710859
14 2 0.414616 0.383895 0.850272
24 3 0.363184 0.486777 0.919053
54 3 0.158225 0.540327 0.101583
48 2 0.101547 0.637788 0.175814
60 3 0.151317 0.636238 0.314755
34 1 0.104074 0.506234 0.426468
63 3 0.150302 0.744812 0.110645
39 1 0.351393 0.507215 0.107604
35 1 0.354624 0.633714 0.343601
64 3 0.446002 0.634869 0.172833
57 3 0.158698 0.531634 0.602002
43 1 0.160221 0.507226 0.927062
62 3 0.157919 0.737254 0.603867
47 2 0.106561 0.633695 0.673273
49 3 0.157852 0.633302 0.810949
44 1 0.359369 0.509081 0.599487
37 1 0.361413 0.632825 0.840423
55 3 0.450668 0.633897 0.672296
33 1 0.105066 0.758688 0.428944
40 1 0.103127 0.884805 0.192942
59 3 0.196996 0.884472 0.357429
41 1 0.352666 0.7615 0.107198
50 3 0.405874 0.780588 0.42054
53 3 0.402575 0.884565 0.214062
45 2 0.352526 0.884772 0.354207
52 3 0.406031 0.988164 0.4213
42 1 0.15838 0.758034 0.928445
36 1 0.16027 0.884115 0.688478
61 3 0.068513 0.88108 0.849225
38 1 0.357911 0.758211 0.601629
51 3 0.361634 0.780042 0.919247
58 3 0.362855 0.883213 0.712046
46 2 0.414187 0.882962 0.851058
56 3 0.363604 0.986292 0.919246
86 3 0.65229 0.029556 0.107593
80 2 0.600361 0.133461 0.176628
92 3 0.652252 0.133366 0.314362
66 1 0.605109 0.0112516 0.429079
95 3 0.653873 0.23624 0.106695
71 1 0.852969 0.00567002 0.105349
67 1 0.861109 0.135398 0.345898
96 3 0.945709 0.130628 0.171758
89 3 0.658188 0.0307662 0.604425
75 1 0.658193 0.008012 0.926924
94 3 0.659473 0.236644 0.60521
79 2 0.606749 0.134011 0.674701
81 3 0.658233 0.132974 0.812477
76 1 0.85925 0.00995141 0.60258
69 1 0.863956 0.13288 0.840447
87 3 0.951355 0.132999 0.673616
65 1 0.609604 0.259863 0.428077
72 1 0.604793 0.385164 0.186251
91 3 0.690429 0.389664 0.349774
73 1 0.854185 0.258043 0.105336
82 3 0.888009 0.279046 0.42001
85 3 0.89995 0.381058 0.213091
77 2 0.846107 0.383593 0.352435
84 3 0.902108 0.487291 0.418352
74 1 0.660049 0.258267 0.926384
68 1 0.660601 0.382685 0.688963
93 3 0.57075 0.383307 0.852138
70 1 0.866016 0.258426 0.599815
83 3 0.862502 0.280303 0.919018
90 3 0.862286 0.383699 0.71204
78 2 0.914402 0.383465 0.850698
88 3 0.86241 0.486555 0.919029
118 3 0.656423 0.533057 0.107212
112 2 0.601732 0.635617 0.176251
124 3 0.652626 0.636566 0.314598
98 1 0.606261 0.512682 0.428049
127 3 0.653336 0.739704 0.107718
103 1 0.860503 0.506069 0.10631
99 1 0.855591 0.633793 0.342908
1 3 0.945366 0.634978 0.173279
121 3 0.658816 0.530904 0.604237
107 1 0.660241 0.508372 0.927508
126 3 0.658068 0.736583 0.603991
111 2 0.606409 0.633601 0.674332
113 3 0.657809 0.633505 0.811952
108 1 0.858951 0.508119 0.600869
101 1 0.862371 0.632593 0.839639
119 3 0.950612 0.633556 0.671328
97 1 0.604977 0.758757 0.42902
104 1 0.603888 0.88463 0.190786
123 3 0.696305 0.884548 0.355805
105 1 0.854918 0.760834 0.105766
114 3 0.90456 0.779939 0.420008
117 3 0.901273 0.883915 0.213383
109 2 0.852086 0.884163 0.353482
116 3 0.90555 0.987261 0.420961
106 1 0.659518 0.758344 0.927157
100 1 0.659844 0.884026 0.688497
125 3 0.570055 0.882298 0.850795
102 1 0.857996 0.757904 0.601258
115 3 0.861156 0.778965 0.918198
122 3 0.86103 0.882868 0.711276
110 2 0.912816 0.882176 0.850121
120 3 0.860853 0.984917 0.918838
