ITEM: TIMESTEP
11181
ITEM: NUMBER OF ATOMS
127
ITEM: BOX BOUNDS pp pp pp
0.0000000000000000e+00 1.0002500000000000e+01
0.0000000000000000e+00 1.2353714000000000e+01
0.0000000000000000e+00 1.0615024000000000e+01
ITEM: ATOMS id type xs ys zs
22 3 0.14897 0.0172827 0.106925
16 2 0.101725 0.125531 0.168437
28 3 0.151841 0.130804 0.307524
2 1 0.105114 0.0141728 0.429177
31 3 0.160719 0.220974 0.0939796
7 1 0.353178 0.00703196 0.10613
3 1 0.352818 0.137695 0.344592
32 3 0.444652 0.134538 0.173375
25 3 0.15848 0.0305149 0.603659
11 1 0.159643 0.00549485 0.926288
30 3 0.160121 0.236821 0.607415
15 2 0.107134 0.134053 0.674056
17 3 0.156361 0.130653 0.812796
12 1 0.357674 0.0105475 0.602259
5 1 0.359869 0.134434 0.839529
23 3 0.451433 0.134922 0.671232
8 1 0.0884557 0.274541 0.358798
27 3 0.204706 0.389858 0.35823
9 1 0.350248 0.263169 0.106445
18 3 0.410213 0.282005 0.419336
21 3 0.409159 0.38534 0.212661
13 2 0.358 0.386774 0.352518
20 3 0.412669 0.490842 0.419202
10 1 0.159423 0.259805 0.923237
4 1 0.160017 0.383396 0.683005
29 3 0.0702728 0.384191 0.846552
6 1 0.355416 0.259145 0.598539
19 3 0.362902 0.281062 0.916178
26 3 0.364516 0.385149 0.709429
14 2 0.415302 0.384116 0.84869
24 3 0.364082 0.486821 0.917641
54 3 0.163137 0.548562 0.0955184
48 2 0.103079 0.641364 0.173655
60 3 0.153102 0.638153 0.312742
34 1 0.104137 0.509519 0.420516
64 3 0.446369 0.635592 0.172925
39 1 0.350949 0.507076 0.107435
35 1 0.355657 0.63433 0.34309
57 3 0.157969 0.532615 0.59947
43 1 0.160554 0.507026 0.925678
62 3 0.157636 0.738211 0.602883
47 2 0.106435 0.634336 0.671872
49 3 0.158287 0.633602 0.809265
44 1 0.358764 0.509797 0.599031
37 1 0.361133 0.633166 0.84063
55 3 0.450507 0.634359 0.672113
33 1 0.105703 0.759507 0.428161
40 1 0.100583 0.884326 0.194587
59 3 0.197064 0.886261 0.357095
41 1 0.351947 0.762141 0.107029
50 3 0.405457 0.781765 0.420948
53 3 0.403389 0.885006 0.214153
45 2 0.352616 0.885624 0.353836
52 3 0.405754 0.98949 0.420519
63 3 0.149093 0.750396 0.111293
42 1 0.158012 0.758497 0.928595
36 1 0.160281 0.88452 0.688027
61 3 0.0687325 0.882496 0.848612
38 1 0.357618 0.758613 0.601864
51 3 0.361326 0.780673 0.918954
58 3 0.362565 0.884042 0.711788
46 2 0.413724 0.883612 0.850902
56 3 0.362995 0.987039 0.918963
86 3 0.651778 0.0293422 0.107572
80 2 0.600299 0.13379 0.175808
92 3 0.65195 0.133615 0.314088
66 1 0.604507 0.011127 0.428813
95 3 0.654717 0.235869 0.105995
71 1 0.852075 0.00557129 0.103916
67 1 0.854495 0.133801 0.34134
96 3 0.945486 0.13071 0.168547
89 3 0.657976 0.0303155 0.603799
75 1 0.658018 0.00859404 0.926618
94 3 0.661268 0.23582 0.60332
79 2 0.607209 0.13391 0.673712
81 3 0.658216 0.133229 0.8115
76 1 0.858554 0.00972828 0.601634
69 1 0.863691 0.133487 0.839189
87 3 0.950905 0.133152 0.671323
65 1 0.605602 0.258138 0.428929
72 1 0.608786 0.384981 0.188843
91 3 0.689925 0.385753 0.359232
73 1 0.860015 0.261062 0.102831
82 3 0.90058 0.280801 0.414236
85 3 0.885915 0.383854 0.209071
77 2 0.845304 0.385422 0.349458
84 3 0.901738 0.488277 0.416749
74 1 0.66021 0.258972 0.925962
68 1 0.661508 0.383118 0.687051
93 3 0.57144 0.383649 0.849233
70 1 0.864881 0.25896 0.597939
83 3 0.862619 0.280684 0.915897
90 3 0.862626 0.384049 0.709021
78 2 0.914601 0.383891 0.847966
88 3 0.862555 0.486914 0.916298
118 3 0.656528 0.533576 0.106788
112 2 0.602023 0.635877 0.176024
124 3 0.652959 0.636421 0.314547
98 1 0.606598 0.512747 0.428929
127 3 0.653927 0.740141 0.107869
103 1 0.864058 0.506993 0.103689
99 1 0.856172 0.634541 0.341006
1 3 0.946897 0.636376 0.172029
121 3 0.658984 0.531691 0.604384
107 1 0.66025 0.508332 0.927127
126 3 0.65783 0.737212 0.603961
111 2 0.606236 0.634217 0.674432
113 3 0.657527 0.634308 0.812037
108 1 0.858873 0.509253 0.599607
101 1 0.862433 0.633148 0.838816
119 3 0.950482 0.634289 0.670412
97 1 0.604582 0.758678 0.429048
104 1 0.60396 0.884405 0.190515
123 3 0.695592 0.884773 0.356363
105 1 0.855087 0.761271 0.104741
114 3 0.904916 0.780921 0.419588
117 3 0.899399 0.884389 0.212772
109 2 0.851226 0.884593 0.352957
116 3 0.904901 0.988411 0.419355
106 1 0.659311 0.758803 0.927247
100 1 0.65971 0.883987 0.688668
125 3 0.569624 0.883033 0.850739
102 1 0.857772 0.758265 0.600812
115 3 0.861374 0.77974 0.917475
122 3 0.861274 0.883381 0.710528
110 2 0.913056 0.882927 0.849393
120 3 0.86078 0.985714 0.917879
