ITEM: TIMESTEP
11181
ITEM: NUMBER OF ATOMS
127
ITEM: BOX BOUNDS pp pp pp
0.0000000000000000e+00 1.0002500000000000e+01
0.0000000000000000e+00 1.2353714000000000e+01
0.0000000000000000e+00 1.0615024000000000e+01
ITEM: ATOMS id type xs ys zs
22 3 0.150098 0.0187189 0.10428
16 2 0.101071 0.124306 0.169444
28 3 0.150963 0.12978 0.307395
2 1 0.10509 0.0159193 0.430931
31 3 0.156358 0.225429 0.100583
7 1 0.354238 0.00702844 0.106154
3 1 0.349787 0.138843 0.346031
32 3 0.444501 0.134878 0.173687
25 3 0.159033 0.0305864 0.605816
11 1 0.160384 0.00363147 0.925322
30 3 0.16292 0.236866 0.614826
15 2 0.107692 0.133809 0.677204
17 3 0.154693 0.12871 0.816866
12 1 0.3577 0.0106221 0.602599
5 1 0.359069 0.13428 0.839308
23 3 0.451654 0.134923 0.671654
8 1 0.0785524 0.297447 0.293306
27 3 0.204768 0.391099 0.355665
9 1 0.350872 0.263047 0.106646
18 3 0.410455 0.282685 0.419283
21 3 0.409302 0.385254 0.212161
13 2 0.357934 0.386994 0.352156
20 3 0.412677 0.490925 0.419115
10 1 0.158362 0.259083 0.925356
4 1 0.160103 0.382921 0.684011
29 3 0.070174 0.384024 0.848065
6 1 0.354989 0.259193 0.598689
19 3 0.361913 0.280842 0.917013
26 3 0.365273 0.385335 0.710165
14 2 0.414975 0.383916 0.84957
24 3 0.363808 0.48668 0.918485
54 3 0.162176 0.547235 0.096761
48 2 0.102751 0.640694 0.174377
60 3 0.152682 0.637827 0.313445
34 1 0.104302 0.508668 0.423038
63 3 0.149121 0.749469 0.111503
39 1 0.350486 0.507045 0.107736
35 1 0.355425 0.634129 0.34322
64 3 0.446669 0.635042 0.172759
57 3 0.158392 0.532349 0.60042
43 1 0.160554 0.506991 0.926281
62 3 0.157726 0.737914 0.603272
47 2 0.106579 0.63413 0.672463
49 3 0.158269 0.633495 0.809919
44 1 0.35911 0.509446 0.599344
37 1 0.361233 0.632886 0.840699
55 3 0.450581 0.634172 0.672269
33 1 0.105599 0.759527 0.428495
40 1 0.101368 0.884601 0.19435
59 3 0.196872 0.886427 0.357309
41 1 0.352178 0.761767 0.107246
50 3 0.405329 0.781636 0.420873
53 3 0.403071 0.884892 0.214195
45 2 0.352432 0.88566 0.354031
52 3 0.405724 0.989426 0.420692
42 1 0.158108 0.758092 0.928763
36 1 0.160324 0.884346 0.688231
61 3 0.0685405 0.881633 0.848826
38 1 0.357682 0.758415 0.6018
51 3 0.361494 0.780432 0.919153
58 3 0.362855 0.883657 0.711889
46 2 0.414119 0.883247 0.850933
56 3 0.363649 0.986726 0.91902
86 3 0.651251 0.0295365 0.107469
80 2 0.600187 0.133881 0.176246
92 3 0.652342 0.133562 0.314165
66 1 0.604651 0.011272 0.428888
95 3 0.654535 0.236173 0.106321
71 1 0.850933 0.00483631 0.104251
67 1 0.857536 0.134105 0.344075
96 3 0.944708 0.129425 0.168518
89 3 0.658194 0.0304422 0.603941
75 1 0.657895 0.00841027 0.92646
94 3 0.66134 0.236067 0.60356
79 2 0.607413 0.134059 0.673855
81 3 0.65854 0.133201 0.811675
76 1 0.85905 0.00988803 0.602281
69 1 0.864064 0.133141 0.839796
87 3 0.951373 0.133024 0.672616
65 1 0.60679 0.258763 0.428386
72 1 0.606271 0.384986 0.187284
91 3 0.690854 0.38678 0.354097
73 1 0.857366 0.259796 0.103065
82 3 0.899115 0.280524 0.415409
85 3 0.897125 0.381493 0.212233
77 2 0.846313 0.384971 0.351094
84 3 0.900842 0.488626 0.417872
74 1 0.660269 0.258526 0.926008
68 1 0.661206 0.382681 0.688133
93 3 0.57116 0.383212 0.850878
70 1 0.867486 0.258908 0.598126
83 3 0.862496 0.280473 0.917118
90 3 0.862462 0.383925 0.710321
78 2 0.914574 0.383693 0.849117
88 3 0.86252 0.486638 0.917671
118 3 0.65743 0.532955 0.107613
112 2 0.602336 0.63552 0.176241
124 3 0.652927 0.636487 0.314801
98 1 0.60684 0.51256 0.428476
127 3 0.65404 0.739702 0.107833
103 1 0.864848 0.505755 0.105201
99 1 0.85593 0.63468 0.341756
1 3 0.946535 0.635886 0.172654
121 3 0.658796 0.531157 0.604364
107 1 0.660411 0.508232 0.927641
126 3 0.657993 0.736771 0.603985
111 2 0.606299 0.63381 0.674432
113 3 0.657711 0.63377 0.812026
108 1 0.858795 0.508967 0.600633
101 1 0.862479 0.632795 0.839288
119 3 0.950612 0.63403 0.670912
97 1 0.604571 0.758714 0.429139
104 1 0.603828 0.884261 0.190754
123 3 0.695796 0.884688 0.356214
105 1 0.855217 0.76096 0.105137
114 3 0.904761 0.78052 0.419778
117 3 0.900006 0.88426 0.213112
109 2 0.851495 0.884421 0.353295
116 3 0.905101 0.987876 0.420228
106 1 0.659492 0.758413 0.927223
100 1 0.659814 0.883943 0.688494
125 3 0.569989 0.882536 0.850738
102 1 0.857912 0.758064 0.601016
115 3 0.861225 0.779245 0.917761
122 3 0.861096 0.883081 0.710825
110 2 0.912866 0.882434 0.849669
120 3 0.860657 0.985137 0.918351
