ITEM: TIMESTEP
11181
ITEM: NUMBER OF ATOMS
127
ITEM: BOX BOUNDS pp pp pp
0.0000000000000000e+00 1.0002500000000000e+01
0.0000000000000000e+00 1.2353714000000000e+01
0.0000000000000000e+00 1.0615024000000000e+01
ITEM: ATOMS id type xs ys zs
22 3 0.149569 0.0176102 0.105823
16 2 0.101377 0.12479 0.16836
28 3 0.15086 0.130958 0.307208
2 1 0.105053 0.0153941 0.4301
31 3 0.158885 0.222699 0.0965044
7 1 0.35388 0.00701587 0.106122
3 1 0.35116 0.138414 0.345409
32 3 0.444569 0.134762 0.173656
25 3 0.158811 0.0305778 0.604789
11 1 0.160098 0.0043583 0.9259
30 3 0.161891 0.236885 0.61204
15 2 0.107523 0.133905 0.675909
17 3 0.155367 0.129293 0.815203
12 1 0.357692 0.0106409 0.602457
5 1 0.359398 0.134352 0.839375
23 3 0.451662 0.134988 0.671366
8 1 0.0813938 0.284619 0.325624
27 3 0.204892 0.390586 0.357341
9 1 0.350448 0.263146 0.106448
18 3 0.410441 0.282369 0.419353
21 3 0.409185 0.385289 0.212476
13 2 0.358095 0.386926 0.352449
20 3 0.412813 0.490946 0.419172
10 1 0.158922 0.259454 0.923988
4 1 0.160065 0.383124 0.68342
29 3 0.0702221 0.384151 0.847286
6 1 0.355046 0.259189 0.598635
19 3 0.362453 0.280951 0.916499
26 3 0.365028 0.385336 0.709757
14 2 0.415201 0.384034 0.849096
24 3 0.363995 0.486737 0.918096
54 3 0.162739 0.548054 0.0960647
48 2 0.10295 0.641093 0.174025
60 3 0.152926 0.638038 0.313109
34 1 0.104233 0.509258 0.421832
63 3 0.149105 0.750026 0.111457
39 1 0.350669 0.507035 0.107613
35 1 0.355575 0.634263 0.343155
64 3 0.446546 0.635296 0.172855
57 3 0.158195 0.532534 0.599925
43 1 0.160587 0.506979 0.925988
62 3 0.157678 0.738101 0.603094
47 2 0.106523 0.634261 0.672183
49 3 0.158307 0.633559 0.809599
44 1 0.358951 0.50965 0.599194
37 1 0.361189 0.633004 0.840677
55 3 0.450546 0.634288 0.67219
33 1 0.105696 0.759605 0.428357
40 1 0.100879 0.884345 0.194586
59 3 0.19692 0.886557 0.357208
41 1 0.352071 0.761949 0.107153
50 3 0.405307 0.781792 0.420946
53 3 0.403236 0.884964 0.214196
45 2 0.352481 0.885732 0.353937
52 3 0.405688 0.989581 0.420558
42 1 0.158067 0.758252 0.928711
36 1 0.160313 0.884476 0.688157
61 3 0.0686242 0.881996 0.848738
38 1 0.357632 0.758532 0.601859
51 3 0.361427 0.780549 0.919063
58 3 0.362743 0.883867 0.711855
46 2 0.413963 0.883419 0.850929
56 3 0.363412 0.98687 0.919036
86 3 0.651438 0.0294521 0.107529
80 2 0.600237 0.133866 0.176051
92 3 0.652237 0.133596 0.314138
66 1 0.604534 0.0112001 0.428868
95 3 0.654628 0.236037 0.106177
71 1 0.851319 0.00510339 0.104028
67 1 0.855714 0.133771 0.342763
96 3 0.945057 0.130023 0.168207
89 3 0.658143 0.0303532 0.603837
75 1 0.657934 0.00851891 0.926499
94 3 0.661566 0.235892 0.603324
79 2 0.607427 0.133996 0.673728
81 3 0.658455 0.133219 0.811545
76 1 0.858874 0.00981658 0.602017
69 1 0.863972 0.133305 0.839503
87 3 0.951214 0.133064 0.672012
65 1 0.606035 0.258365 0.428721
72 1 0.607427 0.38495 0.188063
91 3 0.690284 0.386085 0.356869
73 1 0.858798 0.260544 0.102792
82 3 0.900606 0.280893 0.41451
85 3 0.89138 0.382719 0.210603
77 2 0.845652 0.385413 0.35014
84 3 0.901052 0.488609 0.417321
74 1 0.66026 0.258733 0.925966
68 1 0.661407 0.382853 0.687603
93 3 0.571371 0.383433 0.850077
70 1 0.866639 0.258971 0.597955
83 3 0.86254 0.280595 0.916447
90 3 0.862577 0.384007 0.709619
78 2 0.914598 0.383809 0.848506
88 3 0.862524 0.486783 0.916965
118 3 0.65703 0.533215 0.107291
112 2 0.602206 0.635671 0.17616
124 3 0.652944 0.636464 0.314713
98 1 0.606755 0.512678 0.428747
127 3 0.654012 0.739887 0.107863
103 1 0.8647 0.506356 0.104389
99 1 0.85603 0.634732 0.341359
1 3 0.946753 0.636166 0.172366
121 3 0.658883 0.53141 0.604394
107 1 0.660358 0.508274 0.927428
126 3 0.657929 0.736975 0.603969
111 2 0.606265 0.634006 0.674442
113 3 0.657616 0.634032 0.81204
108 1 0.85881 0.509166 0.600202
101 1 0.862457 0.632965 0.839056
119 3 0.950561 0.634183 0.670682
97 1 0.604526 0.758712 0.42912
104 1 0.603873 0.884299 0.190651
123 3 0.695679 0.884743 0.356316
105 1 0.855153 0.761096 0.104924
114 3 0.904861 0.780761 0.419699
117 3 0.899651 0.884332 0.212947
109 2 0.851342 0.884521 0.353137
116 3 0.904993 0.988189 0.419753
106 1 0.65941 0.75858 0.927242
100 1 0.659781 0.883959 0.688575
125 3 0.569846 0.882755 0.85074
102 1 0.85785 0.758162 0.600927
115 3 0.861276 0.779463 0.917626
122 3 0.86119 0.883215 0.710682
110 2 0.912954 0.882647 0.849539
120 3 0.860706 0.985382 0.918138
