ITEM: TIMESTEP
11181
ITEM: NUMBER OF ATOMS
127
ITEM: BOX BOUNDS pp pp pp
0.0000000000000000e+00 1.0002500000000000e+01
0.0000000000000000e+00 1.2353714000000000e+01
0.0000000000000000e+00 1.0615024000000000e+01
ITEM: ATOMS id type xs ys zs
22 3 0.149803 0.0258875 0.100809
16 2 0.102673 0.12931 0.17461
28 3 0.159034 0.122799 0.30851
2 1 0.106667 0.0147578 0.430789
31 3 0.154841 0.233621 0.106222
7 1 0.351846 0.00804349 0.107034
3 1 0.350134 0.138742 0.346544
32 3 0.445546 0.133774 0.17324
25 3 0.158682 0.0303918 0.606743
11 1 0.15948 0.00400091 0.925314
30 3 0.163807 0.236975 0.617886
15 2 0.107477 0.133578 0.678275
17 3 0.154118 0.127967 0.818156
12 1 0.357315 0.0100652 0.602516
5 1 0.358477 0.133423 0.839718
23 3 0.450742 0.133802 0.672894
8 1 0.102339 0.374055 0.198367
27 3 0.20324 0.390701 0.348505
9 1 0.354617 0.260693 0.106575
18 3 0.410028 0.283075 0.418737
21 3 0.409144 0.384549 0.210313
13 2 0.356573 0.386201 0.35044
20 3 0.410563 0.490195 0.418224
10 1 0.158351 0.256882 0.926331
4 1 0.160122 0.382132 0.687164
29 3 0.0697672 0.383844 0.851586
6 1 0.355544 0.258887 0.598821
19 3 0.361315 0.280585 0.917928
26 3 0.365253 0.385369 0.711364
14 2 0.414201 0.383882 0.850801
24 3 0.362367 0.486883 0.91954
54 3 0.152743 0.531022 0.10752
48 2 0.0999394 0.63369 0.17724
60 3 0.14978 0.634125 0.315864
34 1 0.103928 0.503166 0.428771
63 3 0.152494 0.737662 0.10861
39 1 0.353206 0.506853 0.107311
35 1 0.353531 0.633011 0.344032
64 3 0.444794 0.634693 0.173056
57 3 0.158606 0.530827 0.603258
43 1 0.159715 0.507374 0.927819
62 3 0.157979 0.736569 0.604336
47 2 0.106381 0.63316 0.673879
49 3 0.157473 0.632939 0.811724
44 1 0.359235 0.508577 0.59914
37 1 0.361525 0.632714 0.839722
55 3 0.450461 0.633694 0.67178
33 1 0.104528 0.757763 0.429191
40 1 0.104606 0.884606 0.191025
59 3 0.196722 0.883227 0.356452
41 1 0.353372 0.760944 0.106524
50 3 0.405756 0.779862 0.419772
53 3 0.401945 0.884275 0.213264
45 2 0.352315 0.8841 0.353587
52 3 0.405867 0.987268 0.421041
42 1 0.15894 0.757664 0.927567
36 1 0.159998 0.88412 0.688764
61 3 0.0686402 0.880776 0.850146
38 1 0.357895 0.758141 0.601249
51 3 0.361816 0.779736 0.918861
58 3 0.362779 0.883083 0.711887
46 2 0.414128 0.882898 0.850907
56 3 0.3632 0.985955 0.919329
86 3 0.653543 0.0296163 0.107951
80 2 0.601197 0.133408 0.176944
92 3 0.652446 0.133261 0.314837
66 1 0.605521 0.0111313 0.42902
95 3 0.654681 0.236328 0.10731
71 1 0.85531 0.00682888 0.106314
67 1 0.862701 0.136007 0.346362
96 3 0.946394 0.132169 0.17368
89 3 0.658372 0.0309178 0.604549
75 1 0.658667 0.00796607 0.927406
94 3 0.658631 0.236941 0.605753
79 2 0.606493 0.133991 0.674949
81 3 0.657988 0.132962 0.812748
76 1 0.859626 0.00983529 0.602472
69 1 0.86387 0.132964 0.840775
87 3 0.951183 0.133121 0.673666
65 1 0.61104 0.260625 0.427699
72 1 0.604884 0.384813 0.185944
91 3 0.691483 0.390712 0.348077
73 1 0.855928 0.258758 0.107314
82 3 0.885718 0.279003 0.42067
85 3 0.901856 0.382815 0.212824
77 2 0.847474 0.383728 0.351882
84 3 0.903144 0.486995 0.419192
74 1 0.66016 0.258202 0.927153
68 1 0.660198 0.382697 0.689442
93 3 0.570286 0.383552 0.852862
70 1 0.865139 0.258468 0.599965
83 3 0.862306 0.280313 0.919889
90 3 0.862214 0.383614 0.712812
78 2 0.914006 0.38344 0.851546
88 3 0.861743 0.486628 0.919567
118 3 0.654584 0.533223 0.106447
112 2 0.600572 0.635661 0.176178
124 3 0.651944 0.636406 0.314279
98 1 0.605571 0.512134 0.427507
127 3 0.65205 0.739728 0.107593
103 1 0.855672 0.506446 0.106714
99 1 0.855043 0.632955 0.344064
1 3 0.943999 0.633957 0.173557
121 3 0.658594 0.530763 0.603915
107 1 0.659693 0.508567 0.927051
126 3 0.657958 0.73655 0.603719
111 2 0.606221 0.633525 0.673917
113 3 0.657431 0.633506 0.811625
108 1 0.858809 0.50767 0.600931
101 1 0.861914 0.632547 0.839833
119 3 0.950469 0.633197 0.671806
97 1 0.605149 0.758817 0.428608
104 1 0.603822 0.885177 0.190408
123 3 0.69695 0.884425 0.354958
105 1 0.854061 0.76047 0.106224
114 3 0.904469 0.779556 0.420131
117 3 0.902763 0.883325 0.213216
109 2 0.852796 0.883889 0.35322
116 3 0.906157 0.986907 0.42083
106 1 0.659176 0.758415 0.926954
100 1 0.660041 0.884152 0.688548
125 3 0.570005 0.882454 0.850732
102 1 0.858074 0.75773 0.601439
115 3 0.860882 0.7789 0.918641
122 3 0.861417 0.882712 0.711669
110 2 0.912875 0.882071 0.850649
120 3 0.861125 0.984936 0.919185
