# LAMMPS data file written by OVITO Pro 3.6.0
127 atoms
3 atom types
0.0 10.0025 xlo xhi
0.0 12.353714 ylo yhi
0.0 10.615024 zlo zhi

Masses

1 7.01
2 30.974
3 32.066

Atoms  # atomic

22 3 1.4959438925 0.2180146386 1.1617294566
16 2 1.0261664775 1.5603482005 1.8075581318
28 3 1.5288921275 1.6156310706 3.2912412663
31 3 1.617464265 2.7301213791 1.0122784107
7 1 3.53672396 0.0861892683 1.1112231724
32 3 4.4550234775 1.6566701085 1.8525127584
2 1 1.0527931325 0.1602968514 4.5363729665
25 3 1.576414005 0.3722309919 6.4190748532
30 3 1.58411593 2.9210727364 6.4328637694
12 1 3.5759437625 0.1275607446 6.3762644614
3 1 3.542905505 1.6932865168 3.6288627197
11 1 1.5950886725 0.0780599068 9.8267310877
15 2 1.06174537 1.6526427978 7.152774697
17 3 1.5632407125 1.625378151 8.627795972
5 1 3.59225784 1.6597832445 8.898500314
23 3 4.5068964425 1.661488057 7.147021354
21 3 4.087241555 4.7555004357 2.2819329393
9 1 3.51023734 3.2486685243 1.1128791162
27 3 2.04815191 4.7913632675 3.8590601301
18 3 4.11090747 3.4737161322 4.474243231
6 1 3.558469395 3.1958440432 6.3419460888
13 2 3.5808249825 4.767668844 3.7610197685
20 3 4.127491615 6.0559141399 4.4723749868
8 1 0.9446361 3.3113265617 4.0544190318
10 1 1.59715919 3.2083089407 9.7934636025
4 1 1.5881669425 4.7399471098 7.2344466917
29 3 0.7012562703 4.7446538748 8.9951925676
19 3 3.6321178025 3.4718630751 9.7441143559
26 3 3.6359387575 4.7537338546 7.5460188761
14 2 4.1517676825 4.7434432109 9.0154991086
24 3 3.6418602375 6.0115025381 9.757436211
54 3 1.63460855 6.762534227 1.032983015
48 2 1.0364490475 7.9154692935 1.8486276596
60 3 1.533643315 7.8759621161 3.3334041416
63 3 1.5004650225 9.2616535081 1.195071247
39 1 3.520099805 6.258020901 1.1215091307
64 3 4.4675065975 7.849661059 1.8521093875
34 1 1.037079205 6.2916847716 4.437069417
57 3 1.572332985 6.5768084908 6.3823574852
62 3 1.5702224575 9.1190175262 6.4165697075
44 1 3.582795475 6.2981581178 6.3456931923
35 1 3.557029035 7.8277826315 3.6222283297
43 1 1.6060514125 6.2654701905 9.816254059
47 2 1.05758433 7.8352689822 7.1406311096
49 3 1.576253965 7.8270908235 8.606130708
37 1 3.6017102025 7.8199627306 8.9071090985
55 3 4.500024725 7.8348613097 7.1527322369
40 1 1.0158539 10.9214367526 2.0529987167
41 1 3.529582175 9.4105157618 1.1177301821
53 3 4.0411200275 10.9293184221 2.2880153481
33 1 1.0559539225 9.3720957112 4.5304285531
59 3 1.9750636425 10.9391149173 3.8075984938
50 3 4.0582143 9.6529326916 4.4853677762
38 1 3.5746834475 9.3678336799 6.3739928463
45 2 3.5309725225 10.9344452134 3.7628137075
52 3 4.0601847925 12.2164271763 4.4816737478
42 1 1.5842859725 9.3695508462 9.8424307082
36 1 1.5900274075 10.9235739451 7.2896235864
61 3 0.6871987568 10.9047098238 9.022781015
51 3 3.6147134525 9.6434450393 9.771554193
58 3 3.6205749175 10.919558988 7.5705395816
46 2 4.1349434775 10.915198127 9.0394359877
56 3 3.62646639 12.1909414643 9.7719575639
86 3 6.5307822875 0.3586332589 1.1595003016
80 2 6.012282695 1.6499496881 1.8720444026
92 3 6.5225202225 1.6478001419 3.3493797528
95 3 6.555938575 2.9133022503 1.1425481082
71 1 8.5419849625 0.0737626674 1.0888785469
96 3 9.46544577 1.618336534 1.8146489678
66 1 6.046811325 0.1363269401 4.5370629431
89 3 6.573062855 0.3705274147 6.4270891963
94 3 6.6036605025 2.9111897652 6.4247114309
76 1 8.5821149925 0.1184512395 6.3673372262
67 1 8.546836175 1.6548664663 3.5938331405
75 1 6.587906565 0.1050292998 9.8260092661
79 2 6.0652459325 1.649999103 7.1620946881
81 3 6.57740394 1.642784534 8.6305983383
69 1 8.6237453975 1.649566723 8.8906027362
87 3 9.5025850525 1.643908722 7.1382214991
72 1 6.10772655 4.7517078455 2.0002845075
73 1 8.626216015 3.2282478351 1.0776266215
85 3 8.8378189025 4.7455680497 2.2275946315
65 1 6.059014375 3.1774370094 4.5417866287
91 3 6.90644618 4.757822934 3.8491350827
82 3 9.0162835075 3.4653279604 4.4162321249
70 1 8.6297468975 3.1942257067 6.3339423607
77 2 8.4605446075 4.7549321649 3.7176467804
84 3 9.0274863075 6.0259440298 4.4376001682
74 1 6.607711515 3.1984630306 9.8182602986
68 1 6.6016600025 4.7348079648 7.2738708908
93 3 5.7133579825 4.7387487995 9.0242352733
83 3 8.62951684 3.4672304324 9.7351658907
90 3 8.6226051125 4.7427514029 7.5361787489
78 2 9.1466360875 4.7412442498 9.0030370704
88 3 8.627576355 6.0127996781 9.7387325388
118 3 6.566861305 6.585999654 1.1484076015
112 2 6.02482583 7.851477055 1.8750166093
124 3 6.5324427025 7.8563938332 3.3532223915
127 3 6.5460861125 9.1406735869 1.1619842172
103 1 8.65116225 6.2606893032 1.0819787813
1 3 9.476068425 7.8590004668 1.8396473493
98 1 6.0661261525 6.3337244604 4.5419352391
121 3 6.58708636 6.5685191487 6.4328849994
126 3 6.57272277 9.1091963236 6.4288512903
108 1 8.58966688 6.2912276842 6.3457038073
99 1 8.562440075 7.8314022697 3.5987691266
107 1 6.606471205 6.2794298873 9.8273361441
111 2 6.0579241025 7.8351454451 7.1676357306
113 3 6.57072227 7.8365043536 8.6352264888
101 1 8.613972955 7.8208151368 8.8876729896
119 3 9.500074425 7.8353060434 7.1339330294
104 1 6.0528428325 10.9236480674 2.0056981698
105 1 8.5626301225 9.4002498255 1.0948123453
117 3 9.001749875 10.9221038531 2.2724006478
97 1 6.0471214025 9.3652517537 4.5390267225
123 3 6.9603496525 10.926514129 3.7991064746
114 3 9.052322515 9.6451992666 4.4704536675
102 1 8.5768336725 9.3649058497 6.3626772307
109 2 8.5168386775 10.9248093165 3.7527718948
116 3 9.051882405 12.207026 4.4668657893
106 1 6.596908815 9.3728245804 9.8314123133
100 1 6.5846357475 10.9183359703 7.2975211643
125 3 5.6944532575 10.909972506 9.0468134294
115 3 8.6168036625 9.6347850857 9.7554830466
122 3 8.61079216 10.9128509213 7.5564109846
110 2 9.1323925275 10.9081935711 9.0222714939
120 3 8.6122825325 12.1776488681 9.7589753895
