# LAMMPS data file written by OVITO Pro 3.6.0
127 atoms
3 atom types
0.0 10.0025 xlo xhi
0.0 12.353714 ylo yhi
0.0 10.615024 zlo zhi

Masses

1 7.01
2 30.974
3 32.066

Atoms  # atomic

22 3 1.5061864525 0.3198969533 1.0867449271
16 2 1.0332482475 1.600670723 1.8590409982
28 3 1.59215794 1.5238059145 3.2883433648
31 3 1.555288725 2.8888418966 1.1390239203
7 1 3.53076247 0.1011954482 1.1150658111
32 3 4.461975215 1.6534581429 1.8524596833
2 1 1.0666565975 0.1833476463 4.5572527187
25 3 1.58127522 0.3745609024 6.457034179
30 3 1.63808942 2.9281143534 6.5875458991
12 1 3.57193276 0.1259671155 6.3762644614
3 1 3.5076066825 1.718031006 3.6471205609
11 1 1.5974892725 0.0466151338 9.8168697304
15 2 1.068847145 1.6477136659 7.210690268
17 3 1.53110268 1.5758521116 8.7029503419
5 1 3.5716826975 1.647491299 8.8927788161
23 3 4.5029554575 1.6515803784 7.1578699086
8 1 1.0416103375 4.6313703175 2.0857036057
9 1 3.55680898 3.2190690256 1.1062765712
21 3 4.095203545 4.7505589501 2.2438886933
27 3 2.03294811 4.8214445611 3.7155874657
18 3 4.10298549 3.4983494379 4.4586922209
6 1 3.5525579175 3.1956093227 6.3358849101
13 2 3.5670015275 4.7701395868 3.7235593488
20 3 4.1046759125 6.0552841005 4.4517818402
10 1 1.585296225 3.1728414278 9.8165512797
4 1 1.58899715 4.7262715484 7.2766732572
29 3 0.6953117845 4.7434926257 9.05150527
19 3 3.61306304 3.4676010438 9.7544533893
26 3 3.65079247 4.7640615595 7.5603491585
14 2 4.141455105 4.743134368 9.0331200484
24 3 3.6241558125 6.0139362198 9.7741654889
54 3 1.532403005 6.5532870193 1.1585980245
48 2 1.0046010875 7.8256948539 1.8861729995
60 3 1.498594555 7.8312046103 3.3660134954
63 3 1.53326322 9.1099869613 1.1669520484
39 1 3.54452591 6.2616776003 1.1169446704
64 3 4.453333055 7.8405316644 1.8490947207
34 1 1.037359275 6.2243570303 4.5293245906
57 3 1.579454765 6.5565854609 6.4160920314
62 3 1.573453265 9.1006969684 6.4291166659
44 1 3.59025734 6.2850878884 6.3395577084
35 1 3.53580373 7.8180973198 3.6275783018
43 1 1.6000499125 6.2698063441 9.8345437454
47 2 1.057524315 7.8217046042 7.1575620729
49 3 1.5693822475 7.8177267083 8.6274669062
37 1 3.605161065 7.8151571358 8.8928000461
55 3 4.4992945425 7.8292774309 7.1436033163
40 1 1.058084455 10.9269218016 2.0100184845
41 1 3.545626185 9.3986561963 1.1099175245
53 3 4.0254361075 10.9236233599 2.275606385
33 1 1.04414097 9.3582966127 4.5384004361
59 3 1.96997237 10.9120479299 3.7980343572
50 3 4.0579842425 9.6338709109 4.4692966298
38 1 3.5766639425 9.3647946663 6.3633778223
45 2 3.526341365 10.9215232286 3.75728328
52 3 4.06173518 12.193807526 4.483977208
42 1 1.59395839 9.3565053242 9.8300748203
36 1 1.586816605 10.920683176 7.2959713708
61 3 0.6849161862 10.8790140987 9.0380878796
51 3 3.6199547625 9.6323390504 9.7670640378
58 3 3.6229755175 10.9090089163 7.5684696519
46 2 4.1407449275 10.9063775752 9.0356676542
56 3 3.6332780925 12.1775253309 9.7738788832
86 3 6.5428653075 0.3652597911 1.1593198462
80 2 6.019724555 1.648961391 1.8820437552
92 3 6.5293619325 1.6473059933 3.353455922
95 3 6.5543881875 2.9216780684 1.1521122449
71 1 8.56722127 0.0868965184 1.1088666371
96 3 9.4717973575 1.6336551394 1.8547843736
66 1 6.05651375 0.1396957979 4.5362137411
89 3 6.5801146175 0.3808674734 6.4304541589
94 3 6.5817550275 2.9283243666 6.4447101361
76 1 8.5965486 0.1238373353 6.3754789496
67 1 8.62659611 1.6845030262 3.6535001904
75 1 6.59168751 0.0988053752 9.8287585573
79 2 6.060894845 1.654705868 7.1695358199
81 3 6.5772539025 1.6418580055 8.6387825218
69 1 8.62851659 1.6420556649 8.9076929248
87 3 9.5082664725 1.6452305694 7.1649819746
72 1 6.0598245775 4.7543268329 1.9550963504
73 1 8.574483085 3.1967458644 1.117231276
85 3 9.028196485 4.730261798 2.2688870748
65 1 6.1121176475 3.2172530296 4.520673346
91 3 6.9180990925 4.826114265 3.7016817843
82 3 8.8569836925 3.4472544768 4.4762919307
70 1 8.6480314675 3.1899883828 6.3551193336
77 2 8.478739155 4.7400953544 3.7357453963
84 3 9.0323475225 6.0147268575 4.4620890285
74 1 6.606591235 3.1888271337 9.8256695853
68 1 6.5886167425 4.7299282478 7.2996972442
93 3 5.70250527 4.7386376161 9.0656232519
83 3 8.6246656275 3.4651179473 9.7770952355
90 3 8.6190842325 4.7404906732 7.5769616711
78 2 9.14012446 4.7381928824 9.041771293
88 3 8.618574105 6.0117866735 9.7738894982
118 3 6.5521476275 6.5853819683 1.1428240989
112 2 6.0119726175 7.852514767 1.8731908252
124 3 6.52255023 7.8618047599 3.3470019874
127 3 6.527291415 9.1392158486 1.1545749304
103 1 8.5687116425 6.2569955427 1.1118919189
1 3 9.447061175 7.8310687195 1.8536804111
98 1 6.0550833925 6.3295983199 4.518444191
121 3 6.5809148175 6.5559183604 6.4230979473
126 3 6.575343425 9.1007093221 6.4215163087
108 1 8.587166255 6.2728330041 6.3595245685
99 1 8.5501269975 7.81843087 3.6292554756
107 1 6.601309915 6.2847419844 9.8247460782
111 2 6.05735396 7.8267325658 7.1570207066
113 3 6.569341925 7.8259789893 8.6257366573
101 1 8.608491585 7.8140576553 8.8946576753
119 3 9.5004845275 7.8223222899 7.1452804901
104 1 6.0511023975 10.9349887768 2.0019510663
105 1 8.5525075925 9.3927387673 1.1065313318
117 3 9.0355883325 10.9113067071 2.2741733568
97 1 6.051292445 9.3715150867 4.5313839052
123 3 6.973803015 10.9257852599 3.7803072671
114 3 9.047441295 9.6310666178 4.4729800432
102 1 8.5805345975 9.3596184601 6.3658617379
109 2 8.532632625 10.9191019006 3.752432214
116 3 9.0646555975 12.1907932198 4.4799116538
106 1 6.59580854 9.3673889462 9.8231750547
100 1 6.5894169425 10.922153268 7.2905683236
125 3 5.6998746125 10.9014731507 9.0412086967
115 3 8.6102020125 9.6218260398 9.764038756
122 3 8.61263262 10.9047468849 7.5655717504
110 2 9.12944179 10.8956669051 9.0331837385
120 3 8.6133628025 12.1648010055 9.7717240333
