# LAMMPS data file written by OVITO Pro 3.6.0
127 atoms
3 atom types
0.0 10.0025 xlo xhi
0.0 12.353714 ylo yhi
0.0 10.615024 zlo zhi

Masses

1 7.01
2 30.974
3 32.066

Atoms  # atomic

22 3 1.500635065 0.2148977965 1.1478237752
16 2 1.02253557 1.5462279054 1.797930305
28 3 1.51989988 1.6143462844 3.280912848
31 3 1.601820355 2.7441304908 1.0312304746
7 1 3.5463563675 0.0854972132 1.111053332
32 3 4.45319302 1.6607468342 1.8576822751
2 1 1.0521529725 0.1805347057 4.5501300376
25 3 1.5811851975 0.3739778071 6.4342543375
30 3 1.61152278 2.9240252741 6.5067974115
12 1 3.57617382 0.1301859089 6.3795126587
3 1 3.527621685 1.7037871737 3.6388939173
11 1 1.6020004 0.0559080916 9.8245656228
15 2 1.068006935 1.650258531 7.1805966749
17 3 1.5486770725 1.5975328796 8.6642055043
5 1 3.585036035 1.6580413708 8.8957828679
23 3 4.511227525 1.6633164067 7.1479448611
21 3 4.088881965 4.7557351563 2.2793110284
9 1 3.5111275625 3.2489279523 1.1109259517
27 3 2.052893095 4.8078678294 3.8481266554
18 3 4.1131380275 3.4809183475 4.4743387662
6 1 3.551187575 3.1969188163 6.3430075912
13 2 3.58513606 4.7729068188 3.7600007262
20 3 4.1315826375 6.060102049 4.471589475
8 1 0.854769639 3.4331712429 3.6518017865
10 1 1.592057915 3.2027991842 9.7961173585
4 1 1.58915719 4.7366610219 7.2384910158
29 3 0.7009081833 4.745382744 9.0043639484
19 3 3.6269065 3.4705659352 9.7449210977
26 3 3.645091045 4.7597006985 7.5485558669
14 2 4.151897715 4.7430973069 9.0194585125
24 3 3.6418602375 6.0103659964 9.7634443146
54 3 1.631027655 6.756962702 1.0401110036
48 2 1.0355488225 7.9127144153 1.8538927116
60 3 1.5319929025 7.8758756401 3.3388071889
63 3 1.5011651975 9.257465599 1.1980859138
39 1 3.517219085 6.2582679753 1.123855051
64 3 4.4694670875 7.8462637877 1.8522367678
34 1 1.03797943 6.2937972567 4.4541383756
57 3 1.5750636675 6.5767837833 6.3861470487
62 3 1.5707225825 9.1182886571 6.4197966748
44 1 3.5858862475 6.2972439429 6.3472748308
35 1 3.5567189575 7.8289562344 3.6232049119
43 1 1.6072717175 6.2643583563 9.8208079043
47 2 1.05890466 7.8345277594 7.1443251379
49 3 1.5771942 7.8255219019 8.6098671964
37 1 3.602800475 7.8171213763 8.9077247699
55 3 4.500664885 7.8345648205 7.1534859036
40 1 1.01777438 10.919386036 2.0550155713
41 1 3.531262595 9.4084403378 1.1195665813
53 3 4.0390095 10.9296272649 2.2894696064
33 1 1.0566140875 9.3755300437 4.5336236753
59 3 1.97273306 10.9463665474 3.809891339
50 3 4.0554136 9.6550204693 4.4863655884
38 1 3.574593425 9.3672901165 6.374746513
45 2 3.528741965 10.9376201179 3.764777487
52 3 4.0591445325 12.2195032511 4.4824380296
42 1 1.5853262325 9.3647081903 9.844543098
36 1 1.5906475625 10.9237839582 7.2923941077
61 3 0.6856143608 10.895110988 9.0249464799
51 3 3.616323855 9.6412460782 9.7730402963
58 3 3.622965515 10.9173970881 7.5718452295
46 2 4.1386444025 10.9119367465 9.040019814
56 3 3.6334581375 12.1878530358 9.7739744184
86 3 6.5253409275 0.3597302687 1.1596382969
80 2 6.01066229 1.6510738761 1.8752076797
92 3 6.5249408275 1.6474171768 3.3504306401
95 3 6.5549283225 2.9148835257 1.1449046436
71 1 8.5310622325 0.0652335397 1.0894517582
96 3 9.46100466 1.6079347068 1.8088425497
66 1 6.046371215 0.1370446909 4.5389418023
89 3 6.57616363 0.3708090794 6.4273439569
94 3 6.6100821075 2.9116468527 6.4239577642
76 1 8.5872562775 0.1202368453 6.373016264
67 1 8.5513873125 1.6492702339 3.6083651083
75 1 6.586226145 0.1038432198 9.8239711815
79 2 6.06939697 1.6514074264 7.1619248477
81 3 6.5816750075 1.6424880449 8.6308318688
69 1 8.6286666275 1.6462065128 8.8951035064
87 3 9.5074662725 1.642611582 7.1472336545
72 1 6.09136246 4.7517696141 1.9896907136
73 1 8.6134828325 3.2220586243 1.076119288
85 3 8.887441305 4.7339555585 2.2408103364
65 1 6.0624252275 3.1806242676 4.5405128259
91 3 6.90488579 4.7629744327 3.8220773865
82 3 9.010832145 3.4674898604 4.4152343126
70 1 8.654703135 3.1941392307 6.3347384875
77 2 8.4581840175 4.758255314 3.7207251374
84 3 9.0173437725 6.0302060611 4.4432155159
74 1 6.60897183 3.1947692701 9.8180904582
68 1 6.601349925 4.7304718112 7.2811315672
93 3 5.7138781125 4.7357839082 9.0355084288
83 3 8.6289066875 3.4662297815 9.7408555436
90 3 8.62307523 4.7426772806 7.5427069887
78 2 9.146986175 4.7405771492 9.0092680895
88 3 8.6268661775 6.0113419398 9.7461949006
118 3 6.5724727075 6.5822564786 1.154808461
112 2 6.02686634 7.8494757533 1.8771502291
124 3 6.5325427275 7.8583827811 3.3556426169
127 3 6.546776285 9.1381040144 1.162334513
103 1 8.6598544225 6.2545124462 1.0879974999
1 3 9.475068175 7.8570979949 1.8445196454
98 1 6.0683267025 6.3348115872 4.540587131
121 3 6.5860561025 6.5643188859 6.4335219008
126 3 6.574503215 9.1055396243 6.4290317457
108 1 8.588726645 6.2902640945 6.35352708
99 1 8.560639625 7.8360843273 3.6030363663
107 1 6.608031595 6.2785651274 9.8315609236
111 2 6.0584242275 7.8320940777 7.1680178715
113 3 6.57156248 7.8323658594 8.6355449395
101 1 8.6141429975 7.8178131843 8.8903479756
119 3 9.50129473 7.8338235977 7.1372024568
104 1 6.05135246 10.9217703028 2.0080547051
105 1 8.5629402 9.3976308381 1.0968291999
117 3 9.00357033 10.9213255691 2.2748527183
97 1 6.045651035 9.3664377102 4.5407463564
123 3 6.961079835 10.9265758976 3.7995947657
114 3 9.05218248 9.6439144804 4.472459907
102 1 8.57794395 9.3633492817 6.3644923998
109 2 8.517828925 10.9241545696 3.7553725757
116 3 9.0526626 12.2052347114 4.4708994985
106 1 6.5980791075 9.368821977 9.8316139988
100 1 6.5862161425 10.9177676995 7.2961518262
125 3 5.6979141225 10.9048704221 9.0463782134
115 3 8.6149832075 9.6294976961 9.7572345256
122 3 8.6102620275 10.9099848597 7.5583110739
110 2 9.131022185 10.9028814741 9.0243201935
120 3 8.6109021875 12.1712990591 9.7626375728
