# LAMMPS data file written by OVITO Pro 3.6.0
127 atoms
3 atom types
0.0 10.0025 xlo xhi
0.0 12.353714 ylo yhi
0.0 10.615024 zlo zhi

Masses

1 7.01
2 30.974
3 32.066

Atoms  # atomic

22 3 1.5084470175 0.2246807026 1.133589028
16 2 1.01733427 1.5374567684 1.8035774978
28 3 1.51025747 1.6142721621 3.2799362658
31 3 1.5747635925 2.7755954004 1.0706950108
7 1 3.5538982525 0.0856448401 1.1114567029
32 3 4.452052735 1.6642182278 1.8608773973
2 1 1.0517128625 0.1950540257 4.5602673855
25 3 1.58459605 0.3746276124 6.4474488123
30 3 1.6268766175 2.9242352872 6.5501067094
12 1 3.5764838975 0.1308900706 6.3814552081
3 1 3.5091470675 1.7136824987 3.646250129
11 1 1.6068316075 0.0423140647 9.8203089982
15 2 1.0710576975 1.6485537184 7.1993215773
17 3 1.5393347375 1.5847097245 8.6882697637
5 1 3.5801048025 1.6571395497 8.8941906143
23 3 4.5126578825 1.6635017124 7.1504287767
8 1 0.8016293572 3.5935224506 3.25528818
9 1 3.5132680975 3.2481002535 1.1124439002
21 3 4.0899522325 4.7550433483 2.27557454
27 3 2.0515427575 4.8145635424 3.8291045324
18 3 4.11430832 3.4861686759 4.4738292451
6 1 3.5486769475 3.1972276592 6.3430182062
13 2 3.58345564 4.7742163124 3.7567206837
20 3 4.1302423025 6.0604726604 4.4704430524
10 1 1.585856365 3.198574214 9.8075072792
4 1 1.589457265 4.7342396939 7.2440957485
29 3 0.7002320143 4.7446662286 9.0133017986
19 3 3.6207749675 3.4690217209 9.7496978585
26 3 3.6497422075 4.7611707905 7.5527700314
14 2 4.1499272225 4.7417136909 9.0247766395
24 3 3.64006979 6.0093282844 9.768486451
54 3 1.625906375 6.7482409799 1.0479236613
48 2 1.0338083875 7.908192956 1.8588923879
60 3 1.52978235 7.8738249236 3.3436582548
63 3 1.50121521 9.2512516809 1.2000709233
39 1 3.5143483675 6.2580950233 1.1260311309
64 3 4.4714275775 7.8419523415 1.8513026457
34 1 1.039519815 6.2883245614 4.4695832355
57 3 1.57751428 6.5748689577 6.3912953354
62 3 1.5711226825 9.1162132332 6.4223548956
44 1 3.5882068275 6.2946867241 6.3488246244
35 1 3.555588675 7.8276096795 3.6239904236
43 1 1.6073317325 6.264024806 9.8248946886
47 2 1.05974487 7.832860008 7.1477750207
49 3 1.5772842225 7.8242371156 8.6136142999
37 1 3.6033006 7.8150088913 8.9081599859
55 3 4.500984965 7.8332800343 7.1544094107
40 1 1.022035445 10.92146146 2.0538054585
41 1 3.53272296 9.4056607522 1.1211269898
53 3 4.0371590375 10.9288613347 2.2899260524
33 1 1.0560939575 9.3764936334 4.5357891402
59 3 1.971272695 10.9491831942 3.8111863719
50 3 4.0539432325 9.654859871 4.4862700532
38 1 3.57473346 9.3659929765 6.3746085176
45 2 3.527381625 10.9386825373 3.7660406748
52 3 4.0588044475 12.21989857 4.4833403066
42 1 1.585856365 9.3614838709 9.8459867412
36 1 1.5906875725 10.9224250497 7.2939651313
61 3 0.6844290645 10.8889835459 9.0269208744
51 3 3.6171540625 9.6394918508 9.7744520945
58 3 3.624405875 10.9147039784 7.5726732014
46 2 4.140894965 10.9092312831 9.0403488797
56 3 3.637449135 12.1856046599 9.7745688598
86 3 6.520689765 0.3608816349 1.1590863156
80 2 6.0099021 1.6519139287 1.8783603419
92 3 6.5279415775 1.6470712728 3.3509613913
95 3 6.5541681325 2.9167859977 1.146847193
71 1 8.522590115 0.0588301156 1.0914473827
96 3 9.45504317 1.5967669494 1.805870343
66 1 6.0472614375 0.1384283069 4.5394300934
89 3 6.577503965 0.3716787809 6.4283311541
94 3 6.6107022625 2.9135246172 6.4254438676
76 1 8.5901570025 0.1213721516 6.3769438229
67 1 8.5703720575 1.6522351252 3.6252748416
75 1 6.58492582 0.1024230368 9.822877834
79 2 6.0707173 1.6525439681 7.1627315896
81 3 6.5836154925 1.6422903854 8.6318827562
69 1 8.6307271425 1.6433404511 8.8994875113
87 3 9.5102069575 1.6417344683 7.1552798427
72 1 6.0756485325 4.7515843084 1.9798081262
73 1 8.5977589025 3.2119903474 1.0769366449
85 3 8.9591692325 4.7151408521 2.2619130041
65 1 6.06983708 3.1858869497 4.536574652
91 3 6.9117775125 4.7696701457 3.7872070327
82 3 9.0042204925 3.4649326416 4.4221234632
70 1 8.670227015 3.1936327284 6.3362458209
77 2 8.466256035 4.7542032958 3.7307881801
84 3 9.011672355 6.0327509262 4.450784028
74 1 6.609351925 3.1915820119 9.8184195239
68 1 6.599709515 4.727371029 7.2882860934
93 3 5.71214768 4.7326337111 9.0461659129
83 3 8.6281865075 3.4647596896 9.7479039195
90 3 8.621894935 4.7422943155 7.550806252
78 2 9.14676612 4.7394035464 9.0163589255
88 3 8.62675615 6.009390053 9.7550690607
118 3 6.57856423 6.5777226656 1.1605299589
112 2 6.0289368575 7.8467579362 1.8787743278
124 3 6.5321426275 7.8590128205 3.3576276264
127 3 6.547416445 9.1348549876 1.1622602078
103 1 8.6665661 6.2447777196 1.0978800872
1 3 9.4731777025 7.8534165881 1.8489673404
98 1 6.0699471075 6.3321678924 4.5370629431
121 3 6.5844557025 6.5600568546 6.4332565252
126 3 6.57556348 9.1020682306 6.4293183513
108 1 8.5879564525 6.2882380854 6.3599703996
99 1 8.559199265 7.837047917 3.6083544933
107 1 6.6092519 6.27767566 9.8353080271
111 2 6.05867429 7.8288697584 7.1679754114
113 3 6.5725727325 7.8280049984 8.6354387893
101 1 8.6143630525 7.8151818433 8.8932246471
119 3 9.502074925 7.8317111126 7.140376349
104 1 6.050572265 10.9203990406 2.0098698742
105 1 8.5636903875 9.3948141913 1.0993237305
117 3 9.00657108 10.9200654903 2.2769651081
97 1 6.0451809175 9.3667959679 4.5416061733
123 3 6.9620300725 10.9259458582 3.7990109394
114 3 9.05122224 9.6410607725 4.4737655549
102 1 8.5788341725 9.3617185915 6.3658405078
109 2 8.5191792625 10.9228944908 3.7575486556
116 3 9.05378288 12.201367999 4.4761645504
106 1 6.5990593525 9.3655976577 9.8314760034
100 1 6.587066355 10.9171870749 7.2950690938
125 3 5.6999746375 10.9010037096 9.0462720631
115 3 8.614153 9.6253962631 9.7589966196
122 3 8.6094618275 10.9075264706 7.5602323933
110 2 9.129821885 10.8989900542 9.0262415128
120 3 8.6095618525 12.166592294 9.7657053147
