# LAMMPS data file written by OVITO Pro 3.6.0
127 atoms
3 atom types
0.0 10.0025 xlo xhi
0.0 12.353714 ylo yhi
0.0 10.615024 zlo zhi

Masses

1 7.01
2 30.974
3 32.066

Atoms  # atomic

22 3 1.4986045575 0.226022316 1.1966847306
16 2 1.036158975 1.5752591333 1.8452096219
28 3 1.53546377 1.6225985653 3.3293279724
31 3 1.6356988225 2.7249204655 1.0262212447
7 1 3.5277717225 0.0804820995 1.1214985156
32 3 4.464615875 1.6420803723 1.8569604535
2 1 1.054803635 0.1277324613 4.5272440459
25 3 1.5683819975 0.3649348884 6.4151366793
30 3 1.5663214825 2.9080272145 6.3871873211
12 1 3.574513405 0.116977812 6.3771561234
3 1 3.5579192575 1.6737429413 3.6275358417
11 1 1.5816653175 0.1060187088 9.8454772201
15 2 1.05366335 1.6465400631 7.1414909265
17 3 1.5727830975 1.6508020944 8.6071179052
5 1 3.598119305 1.6587949474 8.912650141
23 3 4.4978141725 1.6495914304 7.1585705001
21 3 4.075758685 4.7411330663 2.3034283629
9 1 3.5201698225 3.2388720291 1.1275703094
27 3 2.04355076 4.7411330663 3.9126766164
18 3 4.1212400525 3.4477486254 4.4896350158
6 1 3.574433385 3.1871840897 6.3551617937
13 2 3.5742833475 4.7411330663 3.7843303612
20 3 4.1212400525 6.0345175073 4.4896350158
8 1 1.04026 3.2130280594 4.4270169892
10 1 1.60224046 3.2154988022 9.8105325611
4 1 1.585736335 4.7411330663 7.2380133398
29 3 0.6984335648 4.7411330663 8.9918700651
19 3 3.638969515 3.4712330357 9.7560137978
26 3 3.6200147775 4.7411330663 7.5522180502
14 2 4.148776935 4.7411330663 9.0183863951
24 3 3.638969515 6.0110207433 9.7560137978
54 3 1.6356988225 6.7573333134 1.0262212447
48 2 1.036158975 7.9070069994 1.8452096219
60 3 1.53546377 7.8596552137 3.3293279724
63 3 1.4986045575 9.2562425814 1.1966847306
39 1 3.5201698225 6.2433817499 1.1275703094
64 3 4.464615875 7.8401734067 1.8569604535
34 1 1.04026 6.2692257196 4.4270169892
57 3 1.5663214825 6.5742265645 6.3871873211
62 3 1.5683819975 9.1173250674 6.4151366793
44 1 3.574433385 6.295082043 6.3551617937
35 1 3.5579192575 7.8085108377 3.6275358417
43 1 1.60224046 6.2667673305 9.8105325611
47 2 1.05366335 7.8357137159 7.1414909265
49 3 1.5727830975 7.8314640383 8.6071179052
37 1 3.598119305 7.8234711853 8.912650141
55 3 4.4978141725 7.8326623486 7.1585705001
40 1 1.017194235 10.9179900663 2.055323407
41 1 3.5277717225 9.401781686 1.1214985156
53 3 4.046791445 10.9179900663 2.2899260524
33 1 1.054803635 9.3545287299 4.5272440459
59 3 1.9805850225 10.9179900663 3.8084052356
50 3 4.063835705 9.6366257891 4.4864292786
38 1 3.574513405 9.3652764611 6.3771561234
45 2 3.536583925 10.9179900663 3.764363501
52 3 4.063835705 12.1993543436 4.4864292786
42 1 1.5816653175 9.3762465591 9.8454772201
36 1 1.5876668175 10.9179900663 7.2939120561
61 3 0.6889611973 10.9179900663 9.0287997336
51 3 3.610802475 9.6439886027 9.7780718177
58 3 3.616043785 10.9179900663 7.576919211
46 2 4.1266614075 10.9179900663 9.0473441806
56 3 3.610802475 12.19199153 9.7780718177
86 3 6.5457460275 0.3526701212 1.1673341893
80 2 6.0218950975 1.6419691889 1.8786151024
92 3 6.53107236 1.6422780317 3.3566191991
95 3 6.5595294725 2.907570127 1.1492674184
71 1 8.5631702575 0.0854522457 1.0976890168
96 3 9.4756983325 1.6314314708 1.836388537
66 1 6.0514024725 0.1277361674 4.5398440793
89 3 6.5673714325 0.3669139534 6.4355918305
94 3 6.5892469 2.9067918431 6.4387975678
76 1 8.5740929875 0.1142396113 6.3643225594
67 1 8.5658909375 1.6672695952 3.598493136
75 1 6.59304785 0.1038244421 9.8386199146
79 2 6.055853585 1.6425992283 7.1737712145
81 3 6.5680416 1.6389672364 8.6416910384
69 1 8.611892435 1.655051772 8.890953032
87 3 9.4963034825 1.6438963683 7.1361303394
72 1 6.131152405 4.7411330663 2.033679373
73 1 8.63703872 3.2286925688 1.0861292557
85 3 8.80127977 4.7411330663 2.2373392235
65 1 6.062175165 3.1613771812 4.5543548172
91 3 6.92016961 4.7411330663 3.8990787706
82 3 9.04438053 3.4613006497 4.4422601637
70 1 8.5919774575 3.1901242736 6.3437400279
77 2 8.4752282775 4.7411330663 3.7393226594
84 3 9.04438053 6.0209531293 4.4422601637
74 1 6.6019600775 3.2029721362 9.8262746417
68 1 6.5980390975 4.7411330663 7.2685209187
93 3 5.709807095 4.7411330663 9.0147242118
83 3 8.626256025 3.4682434369 9.7365458438
90 3 8.6183240425 4.7411330663 7.5354569273
78 2 9.14312521 4.7411330663 9.0020817182
88 3 8.626256025 6.0140103421 9.7365458438
118 3 6.5595294725 6.5746836519 1.1492674184
112 2 6.0218950975 7.8402845901 1.8786151024
124 3 6.53107236 7.8399757472 3.3566191991
127 3 6.5457460275 9.1295923054 1.1673341893
103 1 8.63703872 6.2535735639 1.0861292557
1 3 9.4756983325 7.8508223081 1.836388537
98 1 6.062175165 6.3208889515 4.5543548172
121 3 6.5892469 6.5754619359 6.4387975678
126 3 6.5673714325 9.1153484732 6.4355918305
108 1 8.5919774575 6.292141859 6.3437400279
99 1 8.5658909375 7.8149965375 3.598493136
107 1 6.6019600775 6.2792816428 9.8262746417
111 2 6.055853585 7.8396545507 7.1737712145
113 3 6.5680416 7.8432988963 8.6416910384
101 1 8.611892435 7.827202007 8.890953032
119 3 9.4963034825 7.8383697644 7.1361303394
104 1 6.05843423 10.9179900663 2.0056026346
105 1 8.5631702575 9.3968031392 1.0976890168
117 3 9.0028401475 10.9179900663 2.2726660234
97 1 6.0514024725 9.3545287299 4.5398440793
123 3 6.961039825 10.9179900663 3.8001042868
114 3 9.0524125375 9.6369716931 4.468903874
102 1 8.5740929875 9.3680189856 6.3643225594
109 2 8.5173588075 10.9179900663 3.7526551296
116 3 9.0524125375 12.1989960859 4.468903874
106 1 6.59304785 9.3784331665 9.8386199146
100 1 6.57988456 10.9179900663 7.3094206062
125 3 5.6866213 10.9179900663 9.0582882703
115 3 8.61667363 9.6458045986 9.7609922441
122 3 8.611332295 10.9179900663 7.5611346703
110 2 9.13400293 10.9179900663 9.026740419
120 3 8.61667363 12.1901755341 9.7609922441
