ITEM: TIMESTEP
2269
ITEM: NUMBER OF ATOMS
127
ITEM: BOX BOUNDS pp pp pp
0.0000000000000000e+00 1.0002500000000000e+01
0.0000000000000000e+00 1.2353714000000000e+01
0.0000000000000000e+00 1.0615024000000000e+01
ITEM: ATOMS id type xs ys zs
22 3 0.150026 0.0173954 0.108132
16 2 0.102228 0.125163 0.169376
28 3 0.151952 0.130677 0.309082
31 3 0.160142 0.22213 0.0971482
7 1 0.354547 0.00692077 0.104668
32 3 0.445208 0.134433 0.175005
2 1 0.105189 0.0146138 0.42865
25 3 0.158079 0.0302725 0.606146
30 3 0.161112 0.236692 0.61298
12 1 0.357528 0.0105382 0.600989
3 1 0.352674 0.137917 0.342806
11 1 0.16016 0.00452561 0.925534
15 2 0.106774 0.133584 0.676456
17 3 0.154829 0.129316 0.816221
5 1 0.358414 0.134214 0.838037
23 3 0.45101 0.134641 0.67338
21 3 0.408786 0.384964 0.214725
9 1 0.351025 0.262992 0.104656
27 3 0.205238 0.389184 0.362517
18 3 0.411211 0.281771 0.42151
6 1 0.35503 0.258782 0.59755
13 2 0.358424 0.386354 0.354215
20 3 0.413055 0.490549 0.421251
8 1 0.0854556 0.277906 0.344022
10 1 0.159166 0.259258 0.922854
4 1 0.158876 0.38342 0.68191
29 3 0.0700733 0.384126 0.848266
19 3 0.3626 0.280933 0.918031
26 3 0.364418 0.385285 0.71112
14 2 0.415086 0.383941 0.849688
24 3 0.364095 0.486523 0.919776
54 3 0.163062 0.546958 0.0979848
48 2 0.103529 0.640513 0.174648
60 3 0.153161 0.637531 0.314536
63 3 0.150079 0.749367 0.112867
39 1 0.351634 0.50659 0.105874
64 3 0.446835 0.635134 0.174492
34 1 0.103772 0.509466 0.419607
57 3 0.157467 0.532373 0.601614
62 3 0.157033 0.738101 0.604784
44 1 0.358499 0.509745 0.597952
35 1 0.355583 0.633733 0.341328
43 1 0.160687 0.507083 0.92518
47 2 0.105864 0.634184 0.673039
49 3 0.15768 0.633455 0.811102
37 1 0.36019 0.632775 0.839162
55 3 0.449954 0.634187 0.673902
40 1 0.101752 0.883895 0.193595
41 1 0.353038 0.761588 0.10547
53 3 0.4038 0.884724 0.215682
33 1 0.105635 0.758924 0.427095
59 3 0.197224 0.886079 0.358915
50 3 0.40544 0.781548 0.422643
38 1 0.35737 0.758257 0.60054
45 2 0.352786 0.885371 0.354665
52 3 0.405813 0.989136 0.422273
42 1 0.158493 0.758048 0.927416
36 1 0.159025 0.884251 0.686988
61 3 0.0685443 0.88193 0.850205
51 3 0.361542 0.780433 0.92068
58 3 0.362206 0.883734 0.713314
46 2 0.413761 0.883292 0.851625
56 3 0.363255 0.986574 0.920768
86 3 0.652371 0.0291192 0.109245
80 2 0.600916 0.13365 0.176656
92 3 0.652331 0.133354 0.315631
95 3 0.655329 0.235952 0.107857
71 1 0.852893 0.00528048 0.102633
96 3 0.945864 0.130158 0.170404
66 1 0.604486 0.0110934 0.427596
89 3 0.657452 0.030016 0.605495
94 3 0.660843 0.23569 0.605176
76 1 0.858511 0.00973285 0.600377
67 1 0.854925 0.133504 0.33993
75 1 0.658458 0.00840583 0.925478
79 2 0.606788 0.133677 0.674697
81 3 0.658003 0.132955 0.813077
69 1 0.862651 0.133256 0.837973
87 3 0.950509 0.132965 0.673313
72 1 0.608984 0.384643 0.187441
73 1 0.861133 0.260817 0.101377
85 3 0.888522 0.383201 0.211098
65 1 0.606091 0.257463 0.427744
91 3 0.690316 0.38555 0.360063
82 3 0.900858 0.280684 0.415942
70 1 0.865254 0.258557 0.596771
77 2 0.845607 0.385168 0.350515
84 3 0.901509 0.488129 0.418578
74 1 0.660732 0.258608 0.924924
68 1 0.65997 0.382919 0.685927
93 3 0.571245 0.383349 0.8512
83 3 0.862675 0.280582 0.917648
90 3 0.862092 0.383907 0.710569
78 2 0.91447 0.383737 0.848728
88 3 0.862471 0.486602 0.918151
118 3 0.657083 0.532816 0.10879
112 2 0.602536 0.635394 0.176839
124 3 0.653091 0.636115 0.316122
127 3 0.654514 0.739705 0.109499
103 1 0.865769 0.506286 0.102496
1 3 0.94727 0.636011 0.173765
98 1 0.606681 0.512786 0.427751
121 3 0.658441 0.531364 0.606077
126 3 0.657286 0.737069 0.605654
108 1 0.858658 0.50918 0.598541
99 1 0.85585 0.63431 0.339428
107 1 0.660638 0.508233 0.926193
111 2 0.605691 0.633987 0.675271
113 3 0.656992 0.634009 0.813521
101 1 0.861199 0.632831 0.837525
119 3 0.949892 0.634127 0.672368
104 1 0.604984 0.884088 0.189171
105 1 0.85608 0.760713 0.103328
117 3 0.900132 0.884052 0.214305
97 1 0.604414 0.758188 0.427766
123 3 0.695934 0.884477 0.357945
114 3 0.904992 0.780649 0.421333
102 1 0.85758 0.757938 0.599574
109 2 0.85157 0.884281 0.353779
116 3 0.90504 0.987981 0.421186
106 1 0.659643 0.758381 0.926198
100 1 0.658457 0.883764 0.687342
125 3 0.569649 0.88272 0.852224
115 3 0.861283 0.779482 0.919191
122 3 0.860811 0.883134 0.712039
110 2 0.912874 0.882559 0.850146
120 3 0.860875 0.985234 0.9197
