ITEM: TIMESTEP
2269
ITEM: NUMBER OF ATOMS
127
ITEM: BOX BOUNDS pp pp pp
0.0000000000000000e+00 1.0002500000000000e+01
0.0000000000000000e+00 1.2353714000000000e+01
0.0000000000000000e+00 1.0615024000000000e+01
ITEM: ATOMS id type xs ys zs
22 3 0.151069 0.019606 0.104857
16 2 0.101551 0.124038 0.171638
28 3 0.152513 0.127894 0.309248
31 3 0.155121 0.227424 0.105072
7 1 0.355402 0.00693767 0.104761
32 3 0.444973 0.134738 0.17524
2 1 0.105238 0.0157713 0.430538
25 3 0.158575 0.0302956 0.60842
30 3 0.163368 0.236682 0.619145
12 1 0.35753 0.0104989 0.601321
3 1 0.34998 0.138914 0.34401
11 1 0.16084 0.00286776 0.924544
15 2 0.107154 0.133371 0.679308
17 3 0.153394 0.127998 0.819852
5 1 0.357595 0.134023 0.837934
23 3 0.450939 0.134439 0.67406
8 1 0.0829218 0.307723 0.271162
9 1 0.35218 0.262642 0.104919
21 3 0.409079 0.384887 0.21388
27 3 0.205043 0.390419 0.358456
18 3 0.411296 0.282603 0.421349
6 1 0.354858 0.258754 0.597572
13 2 0.358271 0.386621 0.353476
20 3 0.41281 0.490626 0.421033
10 1 0.15809 0.258501 0.925133
4 1 0.158912 0.383062 0.683102
29 3 0.0699661 0.383929 0.849999
19 3 0.361405 0.280734 0.91903
26 3 0.365051 0.385364 0.711946
14 2 0.41462 0.383738 0.850684
24 3 0.363645 0.486429 0.920605
54 3 0.161736 0.54489 0.0998379
48 2 0.103087 0.639559 0.175579
60 3 0.152612 0.637052 0.315423
63 3 0.150174 0.747979 0.113024
39 1 0.35135 0.506702 0.106154
64 3 0.447088 0.634588 0.174337
34 1 0.103913 0.508363 0.422422
57 3 0.157919 0.531964 0.602608
62 3 0.157128 0.737689 0.605224
44 1 0.358958 0.509339 0.598231
35 1 0.355313 0.633547 0.341485
43 1 0.16063 0.507119 0.925904
47 2 0.105992 0.633866 0.673643
49 3 0.157614 0.633239 0.811791
37 1 0.360281 0.63252 0.839203
55 3 0.450038 0.63395 0.674079
40 1 0.102825 0.884411 0.193066
41 1 0.353334 0.761217 0.105702
53 3 0.403407 0.884576 0.215727
33 1 0.10543 0.758849 0.427445
59 3 0.197087 0.885878 0.359186
50 3 0.405418 0.781242 0.422537
38 1 0.357458 0.758021 0.600453
45 2 0.352646 0.885264 0.354913
52 3 0.405921 0.988819 0.422608
42 1 0.158586 0.757665 0.927574
36 1 0.159024 0.883964 0.687237
61 3 0.0683453 0.881107 0.850501
51 3 0.361669 0.780149 0.920908
58 3 0.362405 0.88326 0.713435
46 2 0.414103 0.882888 0.851662
56 3 0.363842 0.986228 0.920806
86 3 0.651768 0.0292398 0.109134
80 2 0.600739 0.133646 0.177131
92 3 0.652559 0.133253 0.315688
95 3 0.655074 0.236158 0.108147
71 1 0.851921 0.00461281 0.103148
96 3 0.945147 0.12881 0.170965
66 1 0.604734 0.0112578 0.427699
89 3 0.657589 0.0302464 0.605769
94 3 0.660189 0.236133 0.605921
76 1 0.858918 0.00990977 0.600995
67 1 0.85865 0.134354 0.342927
75 1 0.658266 0.00811173 0.925413
79 2 0.606695 0.133809 0.675066
81 3 0.658157 0.132868 0.813452
69 1 0.862856 0.132793 0.838784
87 3 0.950877 0.132847 0.674769
72 1 0.606393 0.384772 0.18561
73 1 0.857686 0.258918 0.102042
85 3 0.900382 0.380474 0.214607
65 1 0.608075 0.258526 0.426993
91 3 0.691111 0.387424 0.353483
82 3 0.895182 0.27957 0.41885
70 1 0.86675 0.258285 0.597805
77 2 0.846655 0.384003 0.352526
84 3 0.901105 0.487828 0.41979
74 1 0.660733 0.258151 0.925029
68 1 0.659494 0.382586 0.68718
93 3 0.570799 0.382921 0.853086
83 3 0.862635 0.280325 0.919182
90 3 0.861783 0.383805 0.712249
78 2 0.914411 0.383526 0.850176
88 3 0.862504 0.486318 0.919833
118 3 0.657963 0.532366 0.109459
112 2 0.602822 0.635127 0.177036
124 3 0.653067 0.636269 0.316322
127 3 0.654515 0.739371 0.109431
103 1 0.86597 0.50508 0.104294
1 3 0.946803 0.635347 0.174514
98 1 0.606896 0.512577 0.427087
121 3 0.658216 0.530774 0.606015
126 3 0.657462 0.736593 0.605711
108 1 0.858602 0.508653 0.599464
99 1 0.855618 0.634121 0.34042
107 1 0.660807 0.508148 0.926725
111 2 0.60577 0.633533 0.675254
113 3 0.657204 0.633388 0.813496
101 1 0.861238 0.632446 0.838014
119 3 0.950014 0.633727 0.672867
104 1 0.604886 0.883981 0.18946
105 1 0.856196 0.760358 0.103813
117 3 0.900846 0.883834 0.214683
97 1 0.604473 0.758231 0.427858
123 3 0.696171 0.884366 0.357784
114 3 0.904776 0.780118 0.421542
102 1 0.857726 0.7577 0.599801
109 2 0.851888 0.88405 0.354146
116 3 0.905286 0.987304 0.42219
106 1 0.659819 0.757971 0.926153
100 1 0.658572 0.88371 0.687157
125 3 0.56996 0.882172 0.852185
115 3 0.861182 0.778913 0.919498
122 3 0.860635 0.882802 0.712388
110 2 0.912669 0.882036 0.850484
120 3 0.860677 0.984605 0.920231
