ITEM: TIMESTEP
2269
ITEM: NUMBER OF ATOMS
127
ITEM: BOX BOUNDS pp pp pp
0.0000000000000000e+00 1.0002500000000000e+01
0.0000000000000000e+00 1.2353714000000000e+01
0.0000000000000000e+00 1.0615024000000000e+01
ITEM: ATOMS id type xs ys zs
22 3 0.15019 0.0225927 0.103154
16 2 0.102706 0.126216 0.174736
28 3 0.157546 0.122666 0.309919
31 3 0.155996 0.230189 0.106939
7 1 0.353683 0.00719424 0.105416
32 3 0.445403 0.133775 0.17518
2 1 0.105988 0.0145828 0.430748
25 3 0.15838 0.0300983 0.608977
30 3 0.16378 0.236673 0.62073
12 1 0.357323 0.0101505 0.601432
3 1 0.350115 0.138746 0.344361
11 1 0.160258 0.00299413 0.924797
15 2 0.107054 0.133158 0.679893
17 3 0.153248 0.127519 0.820487
5 1 0.357307 0.133416 0.838258
23 3 0.4504 0.133763 0.674841
8 1 0.0967556 0.351278 0.217273
9 1 0.355287 0.260875 0.104463
21 3 0.408539 0.384392 0.21288
27 3 0.20395 0.389969 0.354757
18 3 0.411036 0.282835 0.421188
6 1 0.355173 0.258492 0.597676
13 2 0.357402 0.38613 0.352665
20 3 0.411476 0.490257 0.420509
10 1 0.158626 0.25722 0.92505
4 1 0.158901 0.38266 0.684629
29 3 0.0698378 0.383673 0.851935
19 3 0.361401 0.280618 0.919263
26 3 0.36512 0.385441 0.712423
14 2 0.414384 0.383799 0.851143
24 3 0.362997 0.486566 0.921023
54 3 0.157112 0.536664 0.105613
48 2 0.101694 0.636092 0.177259
60 3 0.151095 0.635225 0.316907
63 3 0.151729 0.742305 0.111948
39 1 0.352716 0.506774 0.106027
64 3 0.446211 0.634458 0.174499
34 1 0.103853 0.505918 0.425713
57 3 0.158091 0.531224 0.604113
62 3 0.157324 0.737032 0.605905
44 1 0.359112 0.509009 0.598154
35 1 0.35445 0.63311 0.341943
43 1 0.160275 0.507217 0.926666
47 2 0.105916 0.633403 0.674443
49 3 0.157159 0.632952 0.812821
37 1 0.360406 0.632508 0.838871
55 3 0.450056 0.633718 0.67401
40 1 0.104574 0.884256 0.191491
41 1 0.353947 0.760938 0.1056
53 3 0.402943 0.884171 0.215545
33 1 0.104849 0.757969 0.427965
59 3 0.197199 0.883917 0.359152
50 3 0.405882 0.780152 0.4222
38 1 0.357657 0.757895 0.600335
45 2 0.352743 0.884321 0.355002
52 3 0.406209 0.987508 0.423141
42 1 0.158918 0.757566 0.927202
36 1 0.158942 0.883822 0.68758
61 3 0.0683932 0.880673 0.851105
51 3 0.361775 0.779771 0.920963
58 3 0.36234 0.882944 0.713638
46 2 0.414082 0.882685 0.851852
56 3 0.363658 0.985813 0.92119
86 3 0.653095 0.0292206 0.109405
80 2 0.601127 0.133213 0.177548
92 3 0.652643 0.133109 0.316005
95 3 0.654552 0.236163 0.108553
71 1 0.854583 0.00574614 0.104259
96 3 0.946387 0.130607 0.173826
66 1 0.605194 0.0111759 0.427893
89 3 0.657681 0.0305059 0.60622
94 3 0.65863 0.236603 0.607376
76 1 0.859134 0.00990729 0.601198
67 1 0.861463 0.135585 0.344271
75 1 0.658645 0.00777906 0.926038
79 2 0.606139 0.133728 0.675819
81 3 0.657811 0.13266 0.814192
69 1 0.862754 0.132606 0.83944
87 3 0.950788 0.132828 0.675505
72 1 0.605487 0.38481 0.185017
73 1 0.855662 0.257684 0.1043
85 3 0.901238 0.380919 0.214639
65 1 0.610285 0.259484 0.426791
91 3 0.690827 0.389656 0.350459
82 3 0.88665 0.278631 0.422135
70 1 0.865178 0.257897 0.599302
77 2 0.846601 0.383118 0.353061
84 3 0.902338 0.486691 0.420222
74 1 0.660462 0.257989 0.925509
68 1 0.659 0.382668 0.687819
93 3 0.570493 0.383228 0.854016
83 3 0.86252 0.280267 0.920886
90 3 0.861717 0.383609 0.713716
78 2 0.91418 0.383352 0.851602
88 3 0.86231 0.486358 0.920885
118 3 0.656579 0.53257 0.108873
112 2 0.602012 0.635265 0.177048
124 3 0.652621 0.636257 0.316104
127 3 0.653644 0.73942 0.109364
103 1 0.860721 0.505762 0.10505
1 3 0.945525 0.63438 0.175105
98 1 0.606004 0.512531 0.426684
121 3 0.658164 0.530602 0.605865
126 3 0.657498 0.736492 0.60571
108 1 0.858681 0.507897 0.599553
99 1 0.855195 0.633251 0.34159
107 1 0.660559 0.508338 0.926475
111 2 0.60581 0.633402 0.675127
113 3 0.657194 0.63325 0.813403
101 1 0.86108 0.632339 0.838299
119 3 0.949972 0.633284 0.673281
104 1 0.605011 0.884426 0.189416
105 1 0.855777 0.760236 0.104411
117 3 0.902127 0.883372 0.214885
97 1 0.604866 0.75828 0.427749
123 3 0.696695 0.884229 0.35734
114 3 0.904602 0.779628 0.421823
102 1 0.857788 0.757565 0.600084
109 2 0.852487 0.883802 0.354242
116 3 0.905762 0.986807 0.422652
106 1 0.65978 0.757977 0.926096
100 1 0.658623 0.883807 0.687265
125 3 0.569947 0.882056 0.852305
115 3 0.861114 0.778694 0.919983
122 3 0.860706 0.88261 0.712889
110 2 0.912686 0.881845 0.851019
120 3 0.860914 0.984466 0.920741
