ITEM: TIMESTEP
2269
ITEM: NUMBER OF ATOMS
127
ITEM: BOX BOUNDS pp pp pp
0.0000000000000000e+00 1.0002500000000000e+01
0.0000000000000000e+00 1.2353714000000000e+01
0.0000000000000000e+00 1.0615024000000000e+01
ITEM: ATOMS id type xs ys zs
22 3 0.150441 0.0207102 0.103614
16 2 0.102209 0.124464 0.173342
28 3 0.155535 0.124356 0.30946
31 3 0.15566 0.228402 0.106189
7 1 0.354592 0.00694254 0.105051
32 3 0.445118 0.134264 0.17516
2 1 0.105575 0.0150747 0.430906
25 3 0.158519 0.0301963 0.608824
30 3 0.163625 0.236669 0.620069
12 1 0.357438 0.0103222 0.601406
3 1 0.350049 0.138772 0.344291
11 1 0.160626 0.002783 0.924427
15 2 0.107122 0.133265 0.679701
17 3 0.153287 0.127783 0.820298
5 1 0.357436 0.133728 0.838083
23 3 0.450637 0.13409 0.674509
8 1 0.0890957 0.328236 0.242347
9 1 0.354003 0.261812 0.104583
21 3 0.408749 0.38468 0.213456
27 3 0.204727 0.390486 0.356991
18 3 0.411297 0.282795 0.421332
6 1 0.355022 0.258617 0.597645
13 2 0.358093 0.38651 0.353226
20 3 0.412396 0.490559 0.420864
10 1 0.158365 0.257905 0.925115
4 1 0.158899 0.382893 0.683743
29 3 0.0699242 0.38378 0.850881
19 3 0.361385 0.280678 0.919144
26 3 0.365125 0.385399 0.71216
14 2 0.414524 0.383769 0.850892
24 3 0.363368 0.486474 0.920795
54 3 0.160037 0.541844 0.102047
48 2 0.102557 0.638279 0.176249
60 3 0.151964 0.636348 0.316055
63 3 0.150695 0.745935 0.112701
39 1 0.351758 0.506796 0.106117
64 3 0.446782 0.634521 0.174382
34 1 0.103854 0.507473 0.42405
57 3 0.158036 0.531659 0.603283
62 3 0.157224 0.737403 0.605524
44 1 0.359086 0.50923 0.598273
35 1 0.35497 0.63341 0.341652
43 1 0.160476 0.507173 0.926287
47 2 0.105976 0.633679 0.674014
49 3 0.15741 0.633126 0.812261
37 1 0.360329 0.632517 0.839112
55 3 0.45008 0.633853 0.674115
40 1 0.103614 0.884395 0.192469
41 1 0.353561 0.761124 0.105709
53 3 0.403219 0.884398 0.215709
33 1 0.10518 0.758477 0.427682
59 3 0.197205 0.884901 0.359325
50 3 0.405723 0.780699 0.422411
38 1 0.357573 0.757953 0.600404
45 2 0.352741 0.884807 0.355037
52 3 0.406149 0.988167 0.422944
42 1 0.158699 0.757658 0.927478
36 1 0.159012 0.883872 0.68736
61 3 0.0683435 0.880875 0.85066
51 3 0.361716 0.779979 0.920967
58 3 0.362384 0.883085 0.71354
46 2 0.41411 0.88278 0.851755
56 3 0.363807 0.986044 0.920962
86 3 0.652384 0.0292455 0.109215
80 2 0.600855 0.133417 0.177313
92 3 0.652561 0.133192 0.315786
95 3 0.654699 0.236174 0.108296
71 1 0.853105 0.00509599 0.103646
96 3 0.945862 0.129634 0.172469
66 1 0.604957 0.0112293 0.427809
89 3 0.65761 0.0303969 0.606007
94 3 0.659333 0.236391 0.606735
76 1 0.858997 0.00993884 0.601123
67 1 0.860145 0.13504 0.343763
75 1 0.658426 0.00791628 0.925682
79 2 0.60638 0.133771 0.675479
81 3 0.657984 0.132747 0.813852
69 1 0.862804 0.132663 0.839097
87 3 0.950853 0.132824 0.675202
72 1 0.605769 0.384893 0.185209
73 1 0.85599 0.258048 0.103016
85 3 0.900748 0.380424 0.214854
65 1 0.609258 0.25901 0.426928
91 3 0.690606 0.38876 0.351745
82 3 0.889787 0.278947 0.420953
70 1 0.865914 0.258041 0.598777
77 2 0.846206 0.383421 0.353125
84 3 0.901608 0.487171 0.419987
74 1 0.660561 0.258066 0.925163
68 1 0.659219 0.382633 0.687511
93 3 0.570673 0.383049 0.853569
83 3 0.862621 0.280278 0.920072
90 3 0.861692 0.383706 0.713034
78 2 0.914331 0.383434 0.850899
88 3 0.862486 0.48632 0.92041
118 3 0.65749 0.53246 0.109233
112 2 0.602543 0.635202 0.177033
124 3 0.652947 0.636315 0.316216
127 3 0.654195 0.739402 0.109379
103 1 0.863747 0.505409 0.104692
1 3 0.946285 0.634958 0.174783
98 1 0.606515 0.512733 0.42695
121 3 0.658223 0.530695 0.605982
126 3 0.657499 0.736536 0.605731
108 1 0.858653 0.508276 0.599573
99 1 0.855464 0.63376 0.34091
107 1 0.660739 0.508243 0.926643
111 2 0.60582 0.633472 0.675235
113 3 0.657257 0.63331 0.813482
101 1 0.861205 0.632396 0.838159
119 3 0.950009 0.633522 0.673039
104 1 0.604964 0.884162 0.189475
105 1 0.856075 0.760355 0.104082
117 3 0.901379 0.883683 0.214811
97 1 0.604679 0.75826 0.427822
123 3 0.696394 0.884313 0.357631
114 3 0.904694 0.779885 0.421659
102 1 0.857754 0.757653 0.599924
109 2 0.852144 0.883955 0.354229
116 3 0.905488 0.987063 0.422486
106 1 0.65983 0.757969 0.926135
100 1 0.658575 0.883758 0.687182
125 3 0.56997 0.882085 0.85223
115 3 0.861161 0.778809 0.9197
122 3 0.860594 0.882723 0.712604
110 2 0.912664 0.881942 0.850694
120 3 0.860798 0.984532 0.920463
