ITEM: TIMESTEP
2269
ITEM: NUMBER OF ATOMS
127
ITEM: BOX BOUNDS pp pp pp
0.0000000000000000e+00 1.0002500000000000e+01
0.0000000000000000e+00 1.2353714000000000e+01
0.0000000000000000e+00 1.0615024000000000e+01
ITEM: ATOMS id type xs ys zs
22 3 0.149557 0.0176477 0.109442
16 2 0.102591 0.126306 0.170283
28 3 0.152851 0.130781 0.310055
31 3 0.161706 0.220996 0.0953628
7 1 0.353584 0.00697679 0.104684
32 3 0.445391 0.134103 0.174518
2 1 0.105253 0.0129756 0.427354
25 3 0.157602 0.0301311 0.604716
30 3 0.158372 0.236453 0.606015
12 1 0.357505 0.0103257 0.600683
3 1 0.354202 0.137067 0.341861
11 1 0.159469 0.00631874 0.925738
15 2 0.106148 0.133777 0.673835
17 3 0.156285 0.13157 0.812791
5 1 0.359136 0.134355 0.838293
23 3 0.450577 0.134493 0.673293
21 3 0.408622 0.384945 0.214972
9 1 0.350936 0.262971 0.10484
27 3 0.204764 0.387848 0.363547
18 3 0.410988 0.281188 0.421501
6 1 0.355758 0.258695 0.59745
13 2 0.357993 0.38593 0.354311
20 3 0.412646 0.49021 0.421325
8 1 0.09444 0.268043 0.381951
10 1 0.159676 0.259704 0.922604
4 1 0.158777 0.383686 0.681529
29 3 0.0701081 0.384067 0.847402
19 3 0.363121 0.281038 0.917955
26 3 0.363503 0.384802 0.710881
14 2 0.415073 0.383969 0.849315
24 3 0.364095 0.486615 0.91921
54 3 0.16342 0.547409 0.0973133
48 2 0.103619 0.640736 0.174152
60 3 0.153326 0.637538 0.314027
63 3 0.150009 0.749706 0.112583
39 1 0.351922 0.50657 0.105653
64 3 0.446639 0.635409 0.17448
34 1 0.103682 0.509295 0.417999
57 3 0.157194 0.532375 0.601257
62 3 0.156983 0.73816 0.60448
44 1 0.35819 0.509819 0.597803
35 1 0.355614 0.633638 0.341236
43 1 0.160565 0.507173 0.924751
47 2 0.105732 0.634244 0.672691
49 3 0.157586 0.633582 0.81075
37 1 0.360081 0.633005 0.839104
55 3 0.44989 0.634211 0.673831
40 1 0.10156 0.884061 0.193405
41 1 0.35287 0.761756 0.105297
53 3 0.404011 0.884699 0.215545
33 1 0.105569 0.758646 0.426794
59 3 0.197457 0.885492 0.358699
50 3 0.40572 0.781379 0.422549
38 1 0.357379 0.758301 0.600469
45 2 0.353009 0.885114 0.35448
52 3 0.405917 0.988887 0.422201
42 1 0.158389 0.75844 0.927217
36 1 0.158963 0.884234 0.686727
61 3 0.0687027 0.882707 0.850001
51 3 0.361381 0.780611 0.92054
58 3 0.361967 0.883909 0.713191
46 2 0.413391 0.883556 0.85157
56 3 0.362556 0.986824 0.920578
86 3 0.652915 0.0290304 0.109232
80 2 0.601078 0.133559 0.176358
92 3 0.652089 0.133385 0.315532
95 3 0.65543 0.235824 0.107635
71 1 0.853985 0.00597089 0.102579
96 3 0.946308 0.131 0.170951
66 1 0.60453 0.0110353 0.427419
89 3 0.657142 0.0299932 0.605471
94 3 0.660201 0.235653 0.605247
76 1 0.857997 0.00958831 0.599842
67 1 0.85447 0.133957 0.338561
75 1 0.658626 0.00850184 0.92567
79 2 0.606373 0.133563 0.674713
81 3 0.657576 0.132979 0.813055
69 1 0.862159 0.133528 0.837549
87 3 0.950021 0.13307 0.672464
72 1 0.61062 0.384638 0.188439
73 1 0.862406 0.261318 0.101519
85 3 0.883561 0.384141 0.209853
65 1 0.60575 0.257205 0.427864
91 3 0.690472 0.385133 0.362612
82 3 0.901403 0.280509 0.416036
70 1 0.862759 0.258564 0.596696
77 2 0.845843 0.384899 0.350225
84 3 0.902523 0.487784 0.418049
74 1 0.660606 0.258907 0.92494
68 1 0.660001 0.38327 0.685243
93 3 0.571193 0.383589 0.850138
83 3 0.862736 0.280663 0.917112
90 3 0.862045 0.383913 0.709954
78 2 0.914435 0.383791 0.848141
88 3 0.862542 0.48672 0.917448
118 3 0.656522 0.533119 0.108187
112 2 0.602332 0.635556 0.176638
124 3 0.653081 0.635954 0.315894
127 3 0.654445 0.739913 0.109466
103 1 0.8649 0.506786 0.101929
1 3 0.94737 0.636165 0.173306
98 1 0.606461 0.512698 0.427878
121 3 0.658544 0.531704 0.606017
126 3 0.657108 0.737365 0.605637
108 1 0.858752 0.509258 0.597804
99 1 0.85603 0.633931 0.339026
107 1 0.660482 0.508303 0.925795
111 2 0.605641 0.634234 0.675235
113 3 0.656908 0.634344 0.813491
101 1 0.861182 0.633074 0.837273
119 3 0.94977 0.634247 0.67206
104 1 0.605133 0.88424 0.188949
105 1 0.856049 0.760925 0.103138
117 3 0.89995 0.884115 0.214074
97 1 0.604561 0.758092 0.427604
123 3 0.695861 0.884472 0.357899
114 3 0.905006 0.780753 0.421144
102 1 0.857469 0.758064 0.599403
109 2 0.851471 0.884334 0.353534
116 3 0.904962 0.988126 0.420806
106 1 0.659526 0.758705 0.926179
100 1 0.658299 0.88381 0.687471
125 3 0.569303 0.883133 0.852265
115 3 0.861465 0.77991 0.919026
122 3 0.860864 0.883366 0.71186
110 2 0.913011 0.882989 0.849953
120 3 0.861013 0.985748 0.919355
