ITEM: TIMESTEP
2269
ITEM: NUMBER OF ATOMS
127
ITEM: BOX BOUNDS pp pp pp
0.0000000000000000e+00 1.0002500000000000e+01
0.0000000000000000e+00 1.2353714000000000e+01
0.0000000000000000e+00 1.0615024000000000e+01
ITEM: ATOMS id type xs ys zs
22 3 0.150807 0.0181873 0.106791
16 2 0.101708 0.124453 0.169908
28 3 0.150988 0.130671 0.30899
31 3 0.157437 0.224677 0.100866
7 1 0.355301 0.00693272 0.104706
32 3 0.445094 0.134714 0.175306
2 1 0.105145 0.0157891 0.429605
25 3 0.15842 0.0303251 0.607389
30 3 0.162647 0.236709 0.61706
12 1 0.357559 0.0105952 0.601172
3 1 0.350827 0.138718 0.343499
11 1 0.160643 0.00342521 0.925133
15 2 0.107079 0.133446 0.67822
17 3 0.153895 0.128278 0.818488
5 1 0.357921 0.134141 0.837887
23 3 0.451153 0.134656 0.673614
8 1 0.0801429 0.290886 0.306668
9 1 0.351239 0.262925 0.104799
21 3 0.408893 0.384908 0.214373
27 3 0.205103 0.389726 0.360725
18 3 0.411328 0.282196 0.421462
6 1 0.354779 0.258807 0.597551
13 2 0.358256 0.38646 0.353906
20 3 0.412921 0.490579 0.421143
10 1 0.158546 0.258916 0.923927
4 1 0.158906 0.383224 0.682438
29 3 0.0700057 0.384068 0.849108
19 3 0.361987 0.280808 0.918481
26 3 0.364883 0.385404 0.711517
14 2 0.414889 0.383829 0.850189
24 3 0.363916 0.486439 0.920251
54 3 0.16255 0.546252 0.0987208
48 2 0.103355 0.640147 0.175119
60 3 0.15294 0.637365 0.314993
63 3 0.150084 0.748864 0.113054
39 1 0.351347 0.506576 0.106079
64 3 0.447031 0.634785 0.174404
34 1 0.103926 0.509023 0.421062
57 3 0.157712 0.532218 0.602099
62 3 0.157073 0.737933 0.605025
44 1 0.358731 0.509538 0.598098
35 1 0.35547 0.633624 0.341402
43 1 0.160693 0.507056 0.925565
47 2 0.105948 0.634049 0.673364
49 3 0.157689 0.633351 0.811455
37 1 0.36024 0.632604 0.839203
55 3 0.449986 0.634083 0.673989
40 1 0.102178 0.884063 0.193481
41 1 0.353184 0.761363 0.105617
53 3 0.403615 0.884662 0.215725
33 1 0.105583 0.759002 0.427299
59 3 0.197078 0.886307 0.359037
50 3 0.405293 0.781535 0.422634
38 1 0.357384 0.758152 0.600527
45 2 0.35265 0.885457 0.354784
52 3 0.405779 0.989168 0.422358
42 1 0.158546 0.757787 0.927552
36 1 0.159029 0.884141 0.687136
61 3 0.0684258 0.881434 0.850391
51 3 0.361625 0.780291 0.920813
58 3 0.36235 0.883516 0.713392
46 2 0.413986 0.883073 0.851656
56 3 0.363654 0.986392 0.920824
86 3 0.651906 0.0292124 0.109193
80 2 0.60084 0.133718 0.176953
92 3 0.652631 0.133326 0.315681
95 3 0.655253 0.236106 0.10804
71 1 0.852046 0.00476214 0.102821
96 3 0.945268 0.129254 0.170124
66 1 0.604575 0.0112054 0.427642
89 3 0.657586 0.0300864 0.605588
94 3 0.660905 0.235842 0.605316
76 1 0.858801 0.00982475 0.600747
67 1 0.856823 0.133744 0.341523
75 1 0.658328 0.00829087 0.925375
79 2 0.60692 0.133769 0.674773
81 3 0.658197 0.132939 0.813176
69 1 0.862857 0.133024 0.838386
87 3 0.950783 0.132894 0.674071
72 1 0.607413 0.384628 0.18651
73 1 0.859561 0.260002 0.101454
85 3 0.895693 0.381678 0.213086
65 1 0.606832 0.257889 0.427373
91 3 0.691005 0.386092 0.356778
82 3 0.900197 0.280477 0.416591
70 1 0.866806 0.258516 0.596913
77 2 0.846414 0.38484 0.351463
84 3 0.900942 0.488335 0.419291
74 1 0.66077 0.25835 0.924955
68 1 0.659806 0.382668 0.686601
93 3 0.571072 0.383094 0.852204
83 3 0.862603 0.280463 0.918312
90 3 0.861974 0.383876 0.711332
78 2 0.914448 0.383642 0.849396
88 3 0.86246 0.486444 0.918987
118 3 0.657692 0.532449 0.109329
112 2 0.602743 0.635174 0.176992
124 3 0.653051 0.636166 0.316309
127 3 0.654578 0.739442 0.109492
103 1 0.86644 0.505498 0.103427
1 3 0.947081 0.635713 0.174184
98 1 0.606843 0.512572 0.427419
121 3 0.658281 0.531019 0.606052
126 3 0.657392 0.736788 0.605681
108 1 0.858581 0.509016 0.599148
99 1 0.855706 0.634388 0.339929
107 1 0.66076 0.508161 0.926546
111 2 0.605716 0.633726 0.675267
113 3 0.657093 0.633656 0.813511
101 1 0.861221 0.632618 0.837796
119 3 0.94997 0.633956 0.672667
104 1 0.604906 0.883977 0.189342
105 1 0.856155 0.760485 0.103563
117 3 0.900432 0.88395 0.214504
97 1 0.604367 0.758217 0.427847
123 3 0.696029 0.884426 0.35789
114 3 0.904896 0.780418 0.421456
102 1 0.857669 0.757806 0.599701
109 2 0.851705 0.884179 0.353984
116 3 0.905152 0.987668 0.421682
106 1 0.659741 0.75812 0.926185
100 1 0.658542 0.883717 0.68724
125 3 0.569855 0.882407 0.852214
115 3 0.8612 0.77915 0.919357
122 3 0.860731 0.882935 0.71222
110 2 0.912754 0.882244 0.850327
120 3 0.860741 0.984853 0.919989
