ITEM: TIMESTEP
2269
ITEM: NUMBER OF ATOMS
127
ITEM: BOX BOUNDS pp pp pp
0.0000000000000000e+00 1.0002500000000000e+01
0.0000000000000000e+00 1.2353714000000000e+01
0.0000000000000000e+00 1.0615024000000000e+01
ITEM: ATOMS id type xs ys zs
22 3 0.149823 0.0182959 0.112735
16 2 0.10359 0.127513 0.17383
28 3 0.153508 0.131345 0.313643
31 3 0.163529 0.220575 0.0966763
7 1 0.352689 0.00651481 0.105652
32 3 0.44635 0.132922 0.174937
2 1 0.105454 0.0103396 0.426494
25 3 0.156799 0.0295405 0.604345
30 3 0.156593 0.235397 0.601712
12 1 0.357362 0.00946904 0.600767
3 1 0.355703 0.135485 0.341736
11 1 0.158127 0.00858193 0.927504
15 2 0.10534 0.133283 0.672772
17 3 0.157239 0.133628 0.810843
5 1 0.359722 0.134275 0.839626
23 3 0.449669 0.13353 0.674381
21 3 0.407474 0.383782 0.216997
9 1 0.351929 0.262178 0.106224
27 3 0.204304 0.383782 0.368598
18 3 0.412021 0.279086 0.422951
6 1 0.357354 0.257994 0.598695
13 2 0.357339 0.383782 0.356507
20 3 0.412021 0.488478 0.422951
8 1 0.104 0.260086 0.417052
10 1 0.160184 0.260286 0.924212
4 1 0.158534 0.383782 0.681865
29 3 0.0698259 0.383782 0.847089
19 3 0.363806 0.280987 0.919076
26 3 0.361911 0.383782 0.711465
14 2 0.414774 0.383782 0.849587
24 3 0.363806 0.486576 0.919076
54 3 0.163529 0.546988 0.0966763
48 2 0.10359 0.640051 0.17383
60 3 0.153508 0.636218 0.313643
63 3 0.149823 0.749268 0.112735
39 1 0.351929 0.505385 0.106224
64 3 0.44635 0.634641 0.174937
34 1 0.104 0.507477 0.417052
57 3 0.156593 0.532166 0.601712
62 3 0.156799 0.738023 0.604345
44 1 0.357354 0.50957 0.598695
35 1 0.355703 0.632078 0.341736
43 1 0.160184 0.507278 0.924212
47 2 0.10534 0.63428 0.672772
49 3 0.157239 0.633936 0.810843
37 1 0.359722 0.633289 0.839626
55 3 0.449669 0.634033 0.674381
40 1 0.101694 0.883782 0.193624
41 1 0.352689 0.761049 0.105652
53 3 0.404578 0.883782 0.215725
33 1 0.105454 0.757224 0.426494
59 3 0.198009 0.883782 0.358775
50 3 0.406282 0.780059 0.422649
38 1 0.357362 0.758094 0.600767
45 2 0.35357 0.883782 0.354626
52 3 0.406282 0.987505 0.422649
42 1 0.158127 0.758982 0.927504
36 1 0.158727 0.883782 0.687131
61 3 0.0688789 0.883782 0.850568
51 3 0.36099 0.780655 0.921154
58 3 0.361514 0.883782 0.713792
46 2 0.412563 0.883782 0.852315
56 3 0.36099 0.986909 0.921154
86 3 0.654411 0.0285477 0.10997
80 2 0.602039 0.132913 0.176977
92 3 0.652944 0.132938 0.316214
95 3 0.655789 0.23536 0.108268
71 1 0.856103 0.00691713 0.103409
96 3 0.947333 0.13206 0.172999
66 1 0.604989 0.0103399 0.427681
89 3 0.656573 0.0297007 0.606272
94 3 0.65876 0.235297 0.606574
76 1 0.857195 0.00924739 0.599558
67 1 0.856375 0.134961 0.339
75 1 0.65914 0.00840431 0.926858
79 2 0.605434 0.132964 0.675813
81 3 0.65664 0.13267 0.8141
69 1 0.860974 0.133972 0.837582
87 3 0.949393 0.133069 0.672267
72 1 0.612962 0.383782 0.191585
73 1 0.863488 0.261354 0.10232
85 3 0.879908 0.383782 0.210771
65 1 0.606066 0.255905 0.429048
91 3 0.691844 0.383782 0.367317
82 3 0.904212 0.280183 0.418488
70 1 0.858983 0.258232 0.597619
77 2 0.847311 0.383782 0.352267
84 3 0.904212 0.48738 0.418488
74 1 0.660031 0.259272 0.925695
68 1 0.659639 0.383782 0.684739
93 3 0.570838 0.383782 0.849242
83 3 0.86241 0.280745 0.917242
90 3 0.861617 0.383782 0.709886
78 2 0.914084 0.383782 0.848051
88 3 0.86241 0.486818 0.917242
118 3 0.655789 0.532203 0.108268
112 2 0.602039 0.63465 0.176977
124 3 0.652944 0.634625 0.316214
127 3 0.654411 0.739016 0.10997
103 1 0.863488 0.50621 0.10232
1 3 0.947333 0.635503 0.172999
98 1 0.606066 0.511659 0.429048
121 3 0.65876 0.532266 0.606574
126 3 0.656573 0.737863 0.606272
108 1 0.858983 0.509332 0.597619
99 1 0.856375 0.632603 0.339
107 1 0.660031 0.508291 0.925695
111 2 0.605434 0.634599 0.675813
113 3 0.65664 0.634894 0.8141
101 1 0.860974 0.633591 0.837582
119 3 0.949393 0.634495 0.672267
104 1 0.605692 0.883782 0.18894
105 1 0.856103 0.760646 0.103409
117 3 0.900059 0.883782 0.214099
97 1 0.604989 0.757224 0.427681
123 3 0.69593 0.883782 0.357993
114 3 0.905015 0.780087 0.420998
102 1 0.857195 0.758316 0.599558
109 2 0.851523 0.883782 0.353523
116 3 0.905015 0.987476 0.420998
106 1 0.65914 0.759159 0.926858
100 1 0.657824 0.883782 0.688592
125 3 0.56852 0.883782 0.853346
115 3 0.861452 0.780802 0.919545
122 3 0.860918 0.883782 0.712305
110 2 0.913172 0.883782 0.850374
120 3 0.861452 0.986762 0.919545
