# LAMMPS data file written by OVITO Basic 3.5.0
1024 atoms
3 atom types
0.0 20.0049991608 xlo xhi
0.0 24.7074298859 ylo yhi
0.0 21.2300491333 zlo zhi

Masses

1 6.941  # Li
2 30.973761  # P
3 15.9994  # O

Atoms  # atomic

1 1 5.4046444576 2.854026831 20.4633285179
2 1 3.6326753877 23.9562586998 11.7278228141
3 1 3.6941575512 9.1200090246 1.544723368
4 1 6.1570739411 12.2802783797 8.9910365046
5 1 5.2399723201 15.8397559788 21.0269939624
6 1 1.0946271965 16.5614195498 10.840271487
7 1 2.8876445806 19.5806156472 0.4941466456
8 1 2.9926087497 21.1697119516 11.9984448245
9 1 8.6086683447 24.2635823644 1.037892982
10 1 8.9286057491 1.0845710796 13.4375181078
11 1 13.802207989 11.2615366774 1.4445493398
12 1 6.4122310044 10.7095104994 12.5566186409
13 1 7.1828258145 13.8418691123 19.8625798203
14 1 8.2392590195 15.5299781769 12.4025270984
15 1 13.27448658 20.9566155319 0.939756878
16 1 11.8607735921 22.6612367576 12.1570373808
17 1 13.630107543 24.3780227219 0.2034059385
18 1 13.7563961309 2.8980268117 12.2346538608
19 1 13.3916641293 5.6623357665 1.2247136228
20 1 8.9702615469 8.3162828943 12.3976173691
21 1 15.8766143081 16.7508439268 2.3632427633
22 1 16.0963864438 20.9136402184 9.1108586081
23 1 10.9733943704 24.4693205406 20.1739165604
24 1 13.032659848 17.7410080207 12.118977752
25 1 13.9179491262 7.9010631806 2.4624772637
26 1 16.1715994006 22.0369628481 12.0119056765
27 1 16.5351706333 8.2862616242 3.8493640404
28 1 18.5315620216 12.5581705588 13.0169674882
29 1 15.9856962254 10.2565230154 2.2231479421
30 1 18.3119541589 15.2995835015 11.4999167212
31 1 18.1765134269 20.6389816944 0.4142558927
32 1 13.4185325997 20.837396074 12.2114285242
33 1 15.3068167112 2.6511461066 19.9510134401
34 1 1.7898488586 5.7197361054 11.2587962059
35 1 0.9098381551 5.0867119182 5.5091912979
36 1 3.3341541283 8.3112162096 17.0223734845
37 1 1.4522923359 14.8192967235 4.5290511635
38 1 0.7118115664 16.2569539822 15.8787883435
39 1 0.6072131811 21.4301200012 4.2362140981
40 1 18.9336140191 24.3721825323 13.5339271322
41 1 0.749009997 4.4781852883 2.4751672472
42 1 8.9323816068 1.5329131922 15.9777809901
43 1 5.2573484682 7.6027172867 3.4983847318
44 1 8.1848106209 13.1567042538 13.6263095204
45 1 3.6798928972 12.9718124287 4.6870360377
46 1 3.5012028054 14.9449806949 11.7686972602
47 1 11.1645018532 18.0245250191 4.029733423
48 1 0.8714626646 22.4259162662 15.2370485871
49 1 13.5580623432 1.1968520717 4.1857607776
50 1 13.798324208 1.2632891242 15.2805987909
51 1 7.9424339831 7.2741751121 9.6157233031
52 1 11.7406224868 10.2897681629 15.8262704836
53 1 13.0940180886 14.9088476196 1.3423539306
54 1 13.4771684896 13.350147228 15.3893239224
55 1 10.6313643351 21.0109340832 20.1935306733
56 1 13.243240339 19.366027909 15.5032783072
57 1 16.0586169192 2.6974127097 5.3732419136
58 1 15.7370566986 2.9437579685 15.0164435917
59 1 13.783419686 7.1028120402 5.4163091404
60 1 11.0347126868 11.913523296 13.9793596632
61 1 13.934300729 17.7758811811 7.0473897906
62 1 16.1307550745 13.7300355621 13.8190277233
63 1 16.2297911496 22.6435086728 5.3306258896
64 1 10.9972117151 24.2973113171 14.647886374
65 1 18.5534531114 8.4839753931 8.371691173
66 1 4.0074282191 6.4794691008 1.3278011062
67 1 3.6899387698 12.0242328874 7.5616558489
68 1 18.806086578 11.9994678407 17.5051425899
69 1 1.8831075874 14.7881099088 9.4229066799
70 1 3.5685303633 18.2194028274 17.0394339071
71 1 1.4285163517 2.9020905312 4.5977645127
72 1 3.4177631624 0.6087203088 21.0850351523
73 1 6.0595120904 5.5561666369 9.635920627
74 1 5.8852568227 3.7389611495 1.7488817657
75 1 6.1051953082 10.2054837618 5.945528308
76 1 6.2230962339 11.6025822639 15.2525657796
77 1 8.9946518731 19.3264471255 4.1467691303
78 1 6.7989471381 16.7185433276 17.9502992779
79 1 4.6514956474 2.1514345221 8.2300745206
80 1 4.795165804 0.6582063617 18.9582047924
81 1 10.8177697981 8.8164566832 9.1858204823
82 1 10.5510485241 5.6770396659 20.9035808663
83 1 8.286368953 13.6491263516 9.7629988282
84 1 10.6390609687 14.4729639489 20.111234201
85 1 8.2496355581 20.497693068 10.6253451014
86 1 13.0968820007 14.6480423783 17.4616606036
87 1 11.4003428598 24.5492561063 9.2333083614
88 1 10.0472268702 2.7655023664 18.7997894428
89 1 15.7412261594 9.0945680227 8.8970777545
90 1 16.2353155805 3.1217515541 2.7088075783
91 1 15.9536251811 10.801773283 12.1583472001
92 1 15.7046760738 5.9566451217 14.9191318728
93 1 16.381961745 15.0222455654 8.9204654904
94 1 17.6312736004 12.962384421 20.570815378
95 1 16.4088815568 2.6941854045 10.3290764231
96 1 13.5037262545 3.1370822372 17.2092878793
97 1 1.6069846926 21.9629220238 6.6819720196
98 1 2.9920697872 2.0826586785 16.4654356572
99 1 15.3222827851 4.7722677068 8.0098630624
100 1 0.3782356404 3.3490666674 17.6527920295
101 1 3.3170803654 7.1653930144 8.7345925162
102 1 5.8860799648 14.9316930141 14.0896439783
103 1 4.22037963 20.3028809 19.6816263351
104 1 3.8217128078 15.6463877736 17.4753352888
105 1 7.7849655165 1.0863155887 8.3946314093
106 1 11.2854727223 2.6581035244 14.3839912476
107 1 8.3666736269 8.9645741697 6.5396113919
108 1 14.1116487589 7.0507712426 19.7323123025
109 1 8.438635673 11.950212126 6.4564666317
110 1 8.4485149016 12.1325857295 16.8843771246
111 1 11.6818025512 16.5064941519 6.8655219169
112 1 6.2403601885 20.9751457779 15.1500319161
113 1 13.5958785525 23.7846675905 7.4219883103
114 1 13.8037107182 23.9172536447 17.367350387
115 1 16.4632025731 5.5093938759 4.5901763658
116 1 16.9615545432 8.9279725693 20.1624912043
117 1 10.8342740319 10.4938812202 7.3707554836
118 1 13.7691257157 8.656163326 17.0853421259
119 1 14.0168728776 21.1611618425 7.1242444864
120 1 10.8538359886 21.1323375382 14.7449029048
121 1 17.9369816425 21.8424369283 7.173560346
122 1 18.4376282996 20.54821622 16.6265938754
123 1 18.5743613398 7.3090094359 5.600905389
124 1 19.744715526 8.9703879796 17.7311414526
125 1 18.8058903727 12.278420892 5.9067223186
126 1 19.902701017 13.2038697711 15.062202071
127 1 17.8650327353 19.838442068 4.3489636509
128 1 0.1460767773 24.3345639648 3.0946785791
129 1 3.5042879762 5.3930149001 6.8093430338
130 1 2.6708451538 5.9299336566 19.8274051328
131 1 19.1995151848 7.1440000929 10.875008249
132 1 1.0616440327 8.8288708648 20.0695503978
133 1 1.3777897972 16.3469135757 7.2006567766
134 1 1.0331119798 17.097539541 18.4160117628
135 1 19.3313454234 18.5896904016 6.1615589063
136 1 2.6655758627 4.2538689576 0.7318240018
137 1 8.9036471345 1.1583886379 10.5878172452
138 1 7.2755565715 1.9702550301 3.5425357198
139 1 1.8039520783 10.857996815 13.2528772994
140 1 9.2734186584 8.6111658811 21.1028958139
141 1 6.0689802302 15.3083465989 8.7699535295
142 1 5.6320571545 17.5116495625 2.7304504022
143 1 9.2528569498 24.0724574716 6.3989618817
144 1 6.3611472687 23.2518379871 13.1742592306
145 1 11.0277197899 4.4951237908 6.8657049034
146 1 7.6660902478 4.2100713636 17.7798170025
147 1 5.6849474845 8.8382560666 9.5815440849
148 1 11.7256656517 7.6455840403 19.5300909615
149 1 8.6757069858 15.1584007801 7.1642149384
150 1 10.8349999784 17.7444307752 14.490358333
151 1 8.6147276183 20.427266355 7.8663387909
152 1 10.581873097 17.7193227126 20.3688130577
153 1 18.9824175905 5.895133708 12.9800650914
154 1 13.7287395361 5.7824819923 17.0738885943
155 1 13.3966333777 7.2620666589 8.5155663152
156 1 11.9163602867 9.7488118954 0.3960360137
157 1 14.2260040005 13.4167232501 9.3338488277
158 1 18.5661210416 15.1544786297 17.3793093272
159 1 0.3878621703 23.6763212092 8.4140837926
160 1 17.7008832723 19.5056266679 19.4243850282
161 1 7.2552701272 3.9659274276 7.2967208734
162 1 2.7318437247 0.2235114146 14.1565390956
163 1 3.9498548075 8.7096608204 6.5191694685
164 1 3.2351740761 5.2319679329 16.8578187096
165 1 1.2702454723 12.2140535759 9.2154099087
166 1 0.6624697319 15.3711901607 13.203612691
167 1 6.1470091927 23.9437609515 8.6798503389
168 1 0.9052860914 22.0750193201 17.9396371055
169 1 9.2658043608 2.2228499134 5.7592370979
170 1 9.1693470748 24.5617584832 17.880944455
171 1 11.4197831878 8.9603229647 4.2323403705
172 1 9.6573512609 9.9255717827 17.1918278408
173 1 6.6254801858 15.175301377 1.9309588345
174 1 5.3840715091 10.738364392 21.0297906522
175 1 7.1495482487 23.9770752923 3.4023037769
176 1 8.20261816 18.1051560123 1.504873215
177 1 13.5598070612 3.4517423133 6.1517689856
178 1 13.130841073 0.7444272609 19.0612929041
179 1 13.8391079945 12.103948646 6.4442874737
180 1 10.5431074655 11.1632512313 19.777705869
181 1 13.6207049915 14.8352620299 6.7516729395
182 1 15.6429769907 11.6553034937 20.2142761581
183 1 1.7181198026 18.4185044553 3.9509394165
184 1 16.1915264529 17.7880548472 14.6297130375
185 1 1.2145106537 4.9776061247 8.2836789842
186 1 18.7995230701 5.5428445701 17.5687073324
187 1 19.2751929721 9.2764890882 12.948155915
188 1 16.0976619367 9.0201547649 14.9739196379
189 1 3.7123242393 14.8121170751 6.8778940572
190 1 18.1526998132 20.6290479481 11.6890636418
191 1 18.650890865 14.2381730043 3.2563257078
192 1 18.7668018255 17.7797009903 16.6623102986
193 1 4.2253448705 22.3094109375 1.0321103234
194 1 9.1297456897 23.7404255269 11.9338140498
195 1 18.5737546657 2.3406339446 1.5429787899
196 1 3.7555224401 2.315944328 11.9084776274
197 1 3.0120329936 15.5712530894 1.4543275381
198 1 1.1039553815 11.171274573 17.5308759022
199 1 0.3419889659 17.5667297545 0.269852742
200 1 3.3221047661 18.4813106145 11.6276174591
201 1 11.0238112244 24.2420698256 4.0385298646
202 1 15.5078019204 20.5951687482 14.5520121621
203 1 6.2762036731 5.2345984232 5.0491879642
204 1 6.0449956989 5.7594443508 19.9640972472
205 1 6.7589662644 9.8698798665 2.3231514048
206 1 11.3575235081 3.4476050281 11.3550677598
207 1 10.1126290078 16.5864134874 1.711821608
208 1 8.2950029922 18.1772499248 12.6332953048
209 1 15.6840946105 22.7260305968 1.5984074111
210 1 14.0812516421 23.8737087809 12.7228066553
211 1 11.7660125551 5.9793465031 4.0199768394
212 1 10.8479115592 5.7630942195 9.3471930376
213 1 12.6025587645 12.9296045687 20.3142910342
214 1 13.5857528563 12.0015566466 11.9800511183
215 1 13.2870959314 17.5717886575 17.3228156514
216 1 10.3947962531 18.387211463 9.1833701173
217 1 17.9060898494 1.2222013511 19.8996342789
218 1 0.4347405327 22.6242680232 11.6123687435
219 1 19.4819398471 6.9536802623 20.427446322
220 1 0.7713274146 3.8796420179 13.1427500719
221 1 18.0851824781 15.3189649946 1.1637013873
222 1 15.9791270479 11.7469021095 9.125156365
223 1 15.4261042078 18.0377201772 20.2279899593
224 1 18.3523427793 17.7742897883 12.1952153325
225 1 19.012603092 2.0959488405 6.0111574864
226 1 0.5127245798 10.206955558 10.7250642888
227 1 6.4462063493 16.6375924282 5.322149728
228 1 1.5681832099 9.0956700981 15.1936032279
229 1 0.6965452273 16.4432076843 2.8208596658
230 1 1.8404792775 18.3617049058 14.309256532
231 1 3.1330020574 20.719269259 3.3375428538
232 1 0.8913707345 0.0429035566 19.1889512621
233 1 9.9368599472 10.095763331 2.1105665275
234 1 11.307357809 4.872512588 17.3182278629
235 1 5.8973016521 12.5955752468 3.2757502795
236 1 8.4934956063 11.5869896466 11.5052457472
237 1 6.2277432289 21.2584238069 3.8674781949
238 1 5.7411085234 17.1683139071 15.7702081423
239 1 4.8155222679 2.8705027154 5.3058658269
240 1 6.0149064661 2.4337243286 13.4588669659
241 1 9.400358679 7.0999171887 3.9869947859
242 1 10.0266021764 7.6330075593 14.6025682891
243 1 9.1493672646 13.2443194596 2.8529184276
244 1 6.7440002566 8.2614260055 14.5330716667
245 1 15.2850839272 20.5562315734 3.4766137265
246 1 8.6407786727 21.327375185 17.173415388
247 1 11.1442213511 22.2063137368 6.3601146868
248 1 13.9301639198 1.5928233614 8.0876296584
249 1 13.3576707123 2.6921076991 0.9936172569
250 1 16.417723846 4.3600473193 12.6489802841
251 1 11.4816708004 11.9328428274 4.3461264206
252 1 15.8009536053 15.8492544574 16.0875025103
253 1 13.701676858 13.2990689933 3.4055122022
254 1 15.4892788444 21.7238555948 16.8573589543
255 1 18.3213106154 22.2273890974 2.9184228645
256 1 19.5563996851 19.9279125083 14.2140687314
257 1 3.9071657729 0.0522803824 6.8506917089
258 1 3.8691645699 7.4009184249 14.5039036057
259 1 2.4429703991 8.0120417374 3.9691028487
260 1 4.9657714736 3.6931035812 17.4718891355
261 1 4.1390332138 19.9108033732 8.5422627793
262 1 6.0011726296 16.8386077046 11.3574501766
263 1 4.3316008623 17.4710352939 6.5117627154
264 1 4.3047567098 19.3345482782 13.96176823
265 1 19.7315833513 6.9736044193 3.678919453
266 1 7.8754843569 1.2412186962 20.0897895224
267 1 3.5526705823 12.9254621077 18.9380937908
268 1 8.4203129789 6.2077492132 16.0994830068
269 1 8.4990286451 14.1459969112 4.920971221
270 1 10.8872959383 14.5006365243 14.9664850457
271 1 8.6494047548 17.9301007428 6.8444498947
272 1 8.1411197788 21.0204269259 13.3038208703
273 1 17.744176085 0.6590530337 3.7412985882
274 1 16.0445412003 24.2920379796 15.101935129
275 1 8.1557726656 6.2779395402 1.5428014736
276 1 16.8395024707 12.2121921601 15.4790619498
277 1 13.31932448 19.3779135246 4.9531473124
278 1 10.7810064303 16.2666896677 17.1010956561
279 1 15.1735701026 14.6699079411 20.6332292433
280 1 13.4703203728 20.5978864717 17.6409619538
281 1 1.426617004 0.0854865829 5.4358266608
282 1 0.5781469478 2.0762738981 14.7384407807
283 1 18.597630047 5.5968452057 1.3725894561
284 1 18.5926093442 2.3699485318 12.5473706045
285 1 18.8450969829 11.805219353 1.5084978337
286 1 16.608371886 10.3687227834 18.0086339574
287 1 2.5969273201 14.7477413505 20.4132803014
288 1 15.6148823234 16.3135977624 12.8231408754
289 1 0.5313735409 3.2293215246 20.4723742141
290 1 2.6716261729 0.8717193771 9.3206567658
291 1 1.1659396015 10.6390845125 2.8745395761
292 1 0.3344112872 10.3084843658 7.2108238763
293 1 0.7355473773 19.4457856404 19.7295552608
294 1 1.3340221456 18.3858531862 8.9780590578
295 1 18.5617380011 24.396282444 0.8286188809
296 1 1.4019899276 21.1679273032 9.3779291952
297 1 3.9269743309 2.3124946044 2.3529616276
298 1 3.9757481343 5.5242187811 12.4830452937
299 1 3.1800449673 12.5256255245 1.9001456555
300 1 5.9402032171 4.4027149986 15.282650978
301 1 4.5686593561 18.9780638091 4.5791745925
302 1 6.3959326947 18.4073432729 9.3499303944
303 1 3.2105597312 24.3095085641 2.2043824196
304 1 6.3610650417 24.056504831 15.8929754544
305 1 10.2640971559 2.7807198111 0.1178385595
306 1 7.6191570389 5.5311014251 12.5902680692
307 1 8.5788899587 11.581304742 0.2702609397
308 1 11.6006862318 10.5242142418 11.2768450592
309 1 5.682818907 11.8261552706 18.5619584179
310 1 10.9458768393 16.4857253847 11.5621338297
311 1 6.0720143299 22.0530880684 18.4444997481
312 1 11.3104613435 21.3686693937 9.2902971078
313 1 16.7374878041 4.0451763514 17.8554552285
314 1 16.717517072 24.1043308315 10.9637442985
315 1 19.0424707448 8.7326754927 1.3080457234
316 1 14.2085751491 8.9569813742 11.8588308423
317 1 13.1447906745 17.9225714389 1.5202641551
318 1 13.2540107519 14.8911712371 11.8311467132
319 1 15.9036771188 21.042784355 19.6792124649
320 1 17.1717000099 24.5885467324 7.5803324471
321 1 16.5194905561 6.4034631048 10.1129924969
322 1 0.9979853048 6.0362873522 15.2198163574
323 1 2.445267497 10.5197740155 5.7043312839
324 1 3.5772543814 13.1058629344 16.0375060805
325 1 18.9447574599 15.182126483 6.3830623242
326 1 19.9420668296 14.4325636518 20.5483446619
327 1 4.2380710013 21.3639655583 6.4816209893
328 1 1.0433056573 22.0088522286 21.1612212805
329 1 1.3910043482 3.1030449731 10.239217895
330 1 9.7827393035 4.2923774181 2.1475977502
331 1 10.5435374796 12.0203961707 9.2214048648
332 1 6.9763639858 9.2242248913 17.019448086
333 1 6.0346434602 23.4691893636 20.8560456589
334 1 8.7968201378 14.7436363975 17.600243181
335 1 7.0084238576 22.6849984637 6.3605740488
336 1 2.9135142532 23.6833508512 16.9554243118
337 1 11.4061884137 2.6613745855 3.800040779
338 1 10.7784234595 5.3241428732 13.059853736
339 1 13.6085541604 9.1437482931 6.774189008
340 1 13.0698036487 7.4855203837 14.4175899903
341 1 11.2429511773 14.6346346128 3.7755521856
342 1 8.3203624222 18.3666348479 15.8878835378
343 1 12.9344464487 18.936182277 9.703736823
344 1 10.8524017897 22.2887702655 17.1371832457
345 1 18.0528909315 5.0027237718 8.1081499205
346 1 18.3116711935 23.9508325586 16.4479681395
347 1 16.2261273302 11.9576910993 4.148097062
348 1 18.0896238796 7.4923440149 15.1805419461
349 1 17.2487425449 17.25121333 6.8953765957
350 1 15.9416597823 16.3774690512 18.5418428893
351 1 13.675027025 23.9591506423 2.6807317111
352 1 16.1159996595 24.0762415031 19.7877027768
353 1 6.3905643485 2.9675667996 10.5034981122
354 1 4.9717297068 0.3995103536 4.161469909
355 1 3.7399850159 8.8559155915 11.5873356425
356 1 5.0626229887 8.4476505935 19.3897950631
357 1 3.9755111366 12.9987806637 13.4622490596
358 1 1.1231963492 12.1378246942 20.4319951998
359 1 5.23292006 22.0692125631 11.0884954952
360 1 3.6303069789 20.8496501711 16.781869238
361 1 10.6766553944 2.6909399188 8.9819891495
362 1 10.3792606553 22.526960594 1.5602670099
363 1 8.6403442655 5.9728272282 6.9731863335
364 1 7.8079783428 7.2548296728 19.3848003922
365 1 3.6589420034 11.6666272424 11.2845462433
366 1 6.0714795379 18.5247389731 20.6210751448
367 1 11.1999428011 20.8148874974 4.0568610392
368 1 8.3656528179 21.2394976767 1.3881942225
369 1 14.0742633175 0.5300987057 10.5636750692
370 1 8.472923307 18.8522216201 19.2217005604
371 1 13.6417973816 6.0519867143 11.2398688799
372 1 16.8382585865 6.2055031015 19.9950740661
373 1 11.0778924762 15.0281733428 9.2916589468
374 1 14.0371004897 11.5968655404 17.2534746191
375 1 15.6501892268 17.9946751558 9.6146045465
376 1 12.8378458757 19.2301526072 20.4901057321
377 1 19.6566809645 1.9857532577 9.2389261771
378 1 18.3480095598 2.1170120103 17.2646661761
379 1 16.8860340616 9.960108127 5.991167072
380 1 15.4180314214 4.3453063333 0.3949661122
381 1 18.2878084799 13.3955054387 8.9925697175
382 1 16.017401397 15.1902482137 5.0847398939
383 1 18.0419513047 19.1643201125 9.097911608
384 1 18.1179070154 18.3614938668 2.2513609962
385 2 3.5712130508 4.9977954945 3.5632874294
386 2 3.3204975908 3.5333695797 14.4180802259
387 2 4.1271285755 10.325676419 3.6997874778
388 2 4.2504438843 10.2723349181 14.3156048456
389 2 3.8043567438 16.0834668387 3.9227783728
390 2 3.3595628413 16.3637781017 14.3548879594
391 2 2.8991677503 23.0343103884 4.3141562616
392 2 4.096483692 22.3705888244 14.4240736039
393 2 8.9738402708 4.6295718021 4.5349173488
394 2 8.4565476011 4.0139552525 14.5209889284
395 2 8.7743271384 10.9610825309 4.1824806043
396 2 8.6825059334 10.3210571888 14.6171699242
397 2 8.5820707118 16.4554393827 3.8277895258
398 2 8.4554544481 16.0482022594 15.1202001311
399 2 8.96290771 22.392285254 3.9573363344
400 2 8.6661720845 23.1814432568 15.023492831
401 2 14.0967655311 4.2277884427 3.5680979821
402 2 13.4552172007 4.3700437102 14.3162819368
403 2 14.0995896595 10.1373244539 4.1695876787
404 2 14.1776532737 11.0308881407 14.513584063
405 2 13.5630221334 16.4546395595 4.1749945742
406 2 13.2426441198 16.3377303484 14.677690071
407 2 13.6121660502 22.5789834925 4.7785510926
408 2 13.3295747659 22.3810221867 15.0583999603
409 2 18.5879941418 4.191942316 4.0530842005
410 2 18.376545417 4.2946645887 15.0994365991
411 2 18.5930434166 9.9202960522 3.8917609417
412 2 19.1078144714 10.5119468629 15.1590248222
413 2 18.3507544811 16.6378780956 4.1628582767
414 2 18.12135228 15.4728046859 14.4006796177
415 2 19.1263369445 23.768458842 5.5485359164
416 2 17.833133001 21.9954470309 14.6356109774
417 2 3.6260676658 4.1061249678 9.6518875741
418 2 2.6884383546 2.8911647533 19.1820013428
419 2 2.6830757789 10.0921313719 8.8839592368
420 2 3.1805059795 10.2318848183 19.0974696256
421 2 3.7036568549 16.9159137491 9.341760002
422 2 3.1462590401 17.5797514592 20.1242402982
423 2 3.4799502678 22.8280283673 9.0045679
424 2 3.3920634099 22.8019572913 19.5406498982
425 2 8.5293594474 4.1495455478 9.7999708901
426 2 8.0984737478 4.2758087962 20.6931762989
427 2 8.2225393971 10.3938314255 8.9194295928
428 2 7.7118837039 10.2629103934 19.2869162835
429 2 8.5227479129 16.7048789634 9.6879068166
430 2 8.1488478673 16.2205174444 20.4935045945
431 2 9.1321313633 23.0982110789 8.8480763313
432 2 8.802601654 22.8167481086 19.9135603606
433 2 13.1343384807 4.1899958667 9.1782171763
434 2 12.58912091 4.4590408736 19.8582520092
435 2 13.2919640359 10.505484891 9.2671257026
436 2 13.8542111051 9.9226860485 19.5663747962
437 2 13.4463862135 16.1991597608 9.3968620935
438 2 13.0249906429 16.2141578296 20.0000218783
439 2 13.8608991285 22.765775765 9.9204338931
440 2 13.5056992446 22.3653630931 19.9068965218
441 2 19.0029705294 4.4466664748 10.459499147
442 2 18.1333440571 3.9937044387 20.0341844757
443 2 17.4311314222 9.2010665736 10.8084998104
444 2 18.8766755485 10.6377389766 20.0287154349
445 2 19.0758749901 16.505532961 9.0028025102
446 2 18.5589140956 17.0724279054 19.7345853145
447 2 18.4984415484 22.346820644 9.5835433113
448 2 18.7228256129 22.6602319168 20.1226384293
449 2 1.7836205258 2.534482385 7.1136559588
450 2 0.79177389 0.1862114299 16.4789368542
451 2 1.1924727371 7.6409623444 6.5821902191
452 2 1.2273624568 6.9030024867 17.7222824314
453 2 1.3254502664 13.1786447981 6.8131055423
454 2 1.2216523116 13.9903353967 17.8259822442
455 2 1.9351625107 19.2762013239 6.359994814
456 2 0.952148914 19.5263268848 16.4894970132
457 2 6.6251679027 0.9410989087 6.1684213476
458 2 6.7544823038 1.681260321 17.6927819143
459 2 6.0124341342 7.120311222 7.2427272077
460 2 5.8677434162 6.6291346502 17.0954721841
461 2 6.0467812065 13.8053135639 6.3656194223
462 2 5.9204862032 14.0734157547 16.9300496854
463 2 6.4731531002 19.7052040361 6.4377405716
464 2 6.1871486146 19.5714504051 17.690597914
465 2 11.6038651543 1.4185256027 6.3843330174
466 2 11.5096682994 1.4592284393 17.1644974449
467 2 11.0909083939 7.4669217866 6.6254999221
468 2 11.3362948365 7.5421920094 16.9295710162
469 2 10.9581439199 13.5575554806 6.4902269984
470 2 11.1522090481 12.8891275745 17.4650666917
471 2 11.3989606638 19.4268946335 7.0027507745
472 2 10.7561281534 19.2605959404 17.2634472295
473 2 16.3529986414 2.3718555457 7.7973592047
474 2 15.8605391472 1.141487006 17.59885753
475 2 16.1774174513 7.3270865435 6.9713512725
476 2 16.2341871193 7.271753217 17.566650658
477 2 16.4357155394 13.1984243437 6.6798140699
478 2 16.0275703961 13.4950740085 17.9702227639
479 2 16.2095101607 19.5315536789 6.8011456441
480 2 15.8783152484 18.9543779368 17.2051001771
481 2 1.1904875704 1.7165129889 1.4481931765
482 2 1.1256823112 0.9360536619 11.9157625027
483 2 1.4109087732 7.0701664563 1.2291852431
484 2 1.5924505637 7.6890579718 12.8296804208
485 2 0.6371626072 13.6750542333 1.6563539211
486 2 1.1689612775 13.2102323051 11.9626061813
487 2 0.3983391884 19.6578467108 1.9142287144
488 2 0.8816321954 19.5768213683 11.8068996242
489 2 5.7780508016 0.6730441844 1.2434124745
490 2 6.3451996991 0.4655903551 11.3336300631
491 2 6.0773492545 7.7623094221 0.6517648129
492 2 6.0448353561 7.7275600468 11.9548533088
493 2 5.0570821739 13.3091963865 0.3401612006
494 2 6.0902165793 13.6817057746 11.5211752287
495 2 5.5611387401 20.0833312948 1.6431751005
496 2 6.19377487 19.7981802804 12.1605184985
497 2 11.4284549471 0.8511904042 1.6754227118
498 2 11.4639568233 0.8227591754 11.9415363424
499 2 10.9798513191 7.2656037351 1.707495845
500 2 11.515637204 7.603475615 11.8582715533
501 2 11.3911965126 12.7377876917 1.3435803261
502 2 10.7350122227 13.3771470127 11.8462312974
503 2 10.7037669118 19.4886428196 1.4290374375
504 2 10.7490142791 19.6802053579 11.9962788515
505 2 15.9668773808 0.9648305543 1.097691284
506 2 16.1048492983 1.2263327163 12.7678513635
507 2 16.0724492856 7.3014923049 0.9317848774
508 2 16.4424957365 7.5268947938 12.5118441794
509 2 15.911289779 13.4488913628 1.5840653152
510 2 16.099556014 13.5675212305 11.3291576568
511 2 15.5570402899 19.628696116 1.0062122007
512 2 15.7209997821 19.1586664321 11.828173303
513 3 0.9511776384 1.7053872513 6.1103467307
514 3 1.1029164243 23.9158150901 17.6258379704
515 3 0.1752035851 8.4348804386 7.4458654026
516 3 0.6561249928 5.6054376018 17.1207732653
517 3 0.1761215187 12.2572175578 7.2923013912
518 3 0.4494247926 12.913381712 17.0290722723
519 3 2.9838703684 18.5399089712 5.508980355
520 3 0.328674896 20.9404300264 16.3714421526
521 3 7.014005092 24.460393586 7.0727613228
522 3 6.2058353359 2.0152630401 19.0950429654
523 3 6.7144129405 5.8520156357 6.6879816572
524 3 6.9147277301 7.4677471442 16.3153908084
525 3 5.5955508687 15.2533859971 6.6589716318
526 3 5.8933220624 13.4780054995 15.5062794946
527 3 5.8577999495 18.4552639537 5.7955041853
528 3 4.6516447763 19.6103057777 17.7441035749
529 3 12.5287402613 2.0700747821 5.3436141885
530 3 10.7976476079 1.1282479313 15.8386638239
531 3 10.5673578939 6.2215905113 7.3682897195
532 3 10.2091734315 6.7329420841 16.2564369751
533 3 10.3562600468 13.5639365937 5.0568844065
534 3 11.1063614221 12.8776508601 19.0197722658
535 3 11.9063300126 20.8360472411 7.3958541232
536 3 12.3030855442 19.2020418678 17.2049955533
537 3 15.8923418453 1.3317607369 8.8228366199
538 3 16.6782523626 2.0857063924 18.5154789196
539 3 14.6649705697 7.5892533744 7.0936962104
540 3 16.9112992832 5.9749865005 18.0753854859
541 3 13.0436929446 17.7911308759 3.5978251075
542 3 14.5861044555 13.3841700982 17.4084825804
543 3 17.3941917608 19.0291202907 5.9371183821
544 3 15.9666733774 19.3757220412 18.6905279842
545 3 4.5466021014 4.5938630857 4.6967537476
546 3 2.3683407766 4.6805307992 14.0256118639
547 3 4.3064249005 11.7840919086 3.2360427842
548 3 3.6521172147 10.43498693 12.8978844196
549 3 3.5512368604 14.8996114371 4.8843006102
550 3 4.0010305583 15.1187348041 13.7104856577
551 3 2.9183375035 21.7843544457 5.2016174185
552 3 2.9507161773 23.1180923833 15.1448250317
553 3 10.165528777 5.4545085701 5.0490161318
554 3 9.1990592345 5.2480689573 13.9624436835
555 3 10.1944293282 10.3757891684 4.0352747919
556 3 10.1120339422 10.6881394573 15.0500897039
557 3 9.4118383654 17.6279275934 3.2591160121
558 3 8.970146098 17.2621969365 14.3003328567
559 3 9.3525681389 20.9898937937 3.4814804496
560 3 9.3416280975 23.8945921296 13.842169247
561 3 15.4935099809 3.9900206857 4.2037554985
562 3 13.5935133209 5.7833799705 14.9397675017
563 3 13.4230211837 11.5001350013 4.4798985151
564 3 12.7308806798 11.5386815598 14.6833770331
565 3 13.1969688342 16.3842482351 5.6740502884
566 3 14.7887147351 16.4620846087 14.6312180387
567 3 14.4267059047 22.8136242152 6.0646865175
568 3 13.3709540305 22.2446031437 13.5168407262
569 3 18.4313604058 5.679500796 4.4247770303
570 3 19.2143433845 3.2897915242 14.2676020937
571 3 18.5817588532 8.388898847 4.0053135559
572 3 18.5441634998 11.9271565142 14.9026026148
573 3 17.6306718723 16.4309732615 2.803070065
574 3 18.8443154289 15.957437715 13.1106633072
575 3 0.3038065993 23.6004482284 6.5334503725
576 3 19.230587281 21.5099575575 15.0880200547
577 3 19.784601272 3.8001544391 9.2911412274
578 3 18.7026612334 3.8094548965 18.6064624637
579 3 16.8414329675 10.4660172899 10.172340667
580 3 19.6795279819 10.6433488312 18.7074273002
581 3 18.6901472714 16.7818648557 10.4841362493
582 3 17.0387565858 17.2547687072 19.7277014034
583 3 17.7442714487 22.5757451291 10.9034422577
584 3 17.8667226082 21.4523384497 19.6836244056
585 3 3.2362457845 4.4209425087 11.1193947691
586 3 3.7537650169 1.9636716417 19.8107021093
587 3 1.1352344091 10.1262777524 8.9474334158
588 3 5.5985209411 9.1714450553 1.0740711492
589 3 2.9205584611 16.0985148308 10.396276323
590 3 3.0638437342 17.2643339729 18.6145672885
591 3 2.0374458463 22.6911834897 8.4537431238
592 3 2.9169876929 21.9235096425 20.7200208304
593 3 8.201124427 5.0644092868 8.6017512031
594 3 7.8495864773 5.2791995939 19.5471511271
595 3 7.7706850014 11.6961778054 9.6321241016
596 3 6.9578999824 8.9200912578 19.19983707
597 3 7.8935042413 16.8443426544 11.0981054011
598 3 7.5334251823 17.3565201896 19.6422028821
599 3 9.3460952391 24.0560116668 10.0384066465
600 3 9.1291848519 24.3235923994 19.9008293432
601 3 14.0136080861 3.4416037745 8.1403521084
602 3 11.1852789428 3.8327943432 20.1257810743
603 3 13.8985907344 9.2220674317 8.654543014
604 3 10.0327812089 10.3354148704 0.1610415321
605 3 14.6147932252 15.2300867751 9.6370455071
606 3 12.6818459422 14.8501930821 20.6519705872
607 3 14.9118595761 23.274654385 10.9528658464
608 3 12.7871409496 23.7370019513 19.7413822286
609 3 3.9708188866 4.2264011812 2.2706494987
610 3 4.4048444343 3.362556738 13.3324786375
611 3 2.7616744826 9.8034544807 3.2003550832
612 3 5.7706045027 9.9793118434 14.2747965176
613 3 2.4269801514 16.6780557273 3.5341765742
614 3 3.8993063345 16.5863916682 15.7839995245
615 3 3.5798359569 22.6225248469 2.9792424867
616 3 4.1455922826 20.9198346547 14.9419481649
617 3 8.4732765367 5.3868911357 3.2857925719
618 3 8.0165920095 4.3893103161 15.9487605291
619 3 7.8892023665 10.2132309624 5.1955350241
620 3 8.6591265411 8.8452427378 14.1486789989
621 3 9.2793868716 15.1434320884 3.3592717868
622 3 9.6107596199 15.3949056754 15.8970751839
623 3 7.5184467545 22.4075845301 4.5167134877
624 3 8.2192831976 24.2281103838 16.0680165506
625 3 14.2598711521 3.9986733371 2.0498641121
626 3 13.2360668523 3.2732377401 15.3724729499
627 3 14.127582921 9.8003683437 2.6571954774
628 3 14.4129750986 10.0075569113 15.6468052031
629 3 16.7627422348 21.4215336522 3.9987416262
630 3 12.7773636218 15.0789580959 15.4549290465
631 3 14.5624950176 22.3236640606 3.5743493063
632 3 11.8578961869 22.5717358784 15.4964521962
633 3 17.2069943002 3.5372830216 4.2828792269
634 3 18.313828213 3.8965757952 16.5965381354
635 3 17.1123467061 10.3378957365 3.7803703474
636 3 0.2691603853 10.2512769573 14.1825836376
637 3 19.5759281939 15.6897690649 4.1326342454
638 3 16.6674486641 15.9891951928 14.4122412965
639 3 19.2980451676 22.8315006278 4.3507968533
640 3 16.8725290035 21.3749772464 15.6673297605
641 3 2.1228788037 4.5609010986 3.9182614908
642 3 3.9778779771 3.7631909741 15.7971122826
643 3 5.1436772261 9.4047844473 2.9734790281
644 3 4.1591177996 11.6531421813 15.0254467464
645 3 4.7302255639 17.1417709978 4.5534528286