# LAMMPS data file written by OVITO Basic 3.5.0
127 atoms
3 atom types
0.0 10.0025 xlo xhi
0.0 12.353714 ylo yhi
0.0 10.615024 zlo zhi

Masses

1 7.01
2 30.974
3 16.0

Atoms  # atomic

2 1 1.062770576 0.090191254 4.598044133
3 1 3.563355416 1.71585002 3.522102647
4 1 1.702829201 4.733729053 7.375628315
5 1 3.659823527 1.806857051 8.771034469
6 1 3.53380133 3.196823199 6.320979506
7 1 3.499038541 0.110287658 1.066070894
8 1 1.009224843 4.507326366 1.955781019
9 1 3.593567917 3.300488834 1.033351781
10 1 1.705556633 3.440455178 9.767355633
11 1 1.672024502 0.286531301 9.823625981
12 1 3.722576762 0.099391559 6.343975044
13 2 3.461347421 4.755578758 3.691749731
14 2 4.133038901 4.782945941 9.086824745
15 2 1.010043198 1.586647281 7.2486566
16 2 1.032237745 1.538210283 1.912684234
17 3 1.467251171 1.663401524 8.710822762
18 3 3.95506927 3.511169443 4.478844101
19 3 3.745606768 3.401635238 9.684152421
20 3 3.966449765 6.074271079 4.362867639
21 3 3.849456124 4.720328485 2.19325556
22 3 1.534059869 0.280963421 1.243126947
23 3 4.463977866 1.595633311 7.169131918
24 3 3.589541961 6.018616733 9.832588989
25 3 1.406643673 0.283680805 6.48167494
26 3 3.645489845 4.841453563 7.623391043
27 3 1.906763472 4.73812679 3.736249398
28 3 1.518705031 1.531201157 3.422960127
29 3 0.712316485 4.831658612 9.126866951
30 3 1.630453061 2.867287507 6.511937418
31 3 1.662756935 2.833448028 1.210916612
32 3 4.50728834 1.614393476 1.793757008
33 1 1.206363666 9.226810475 4.513942359
34 1 1.062770576 6.267048254 4.598044133
35 1 3.563355416 7.89270702 3.522102647
36 1 1.702829201 10.910586053 7.375628315
37 1 3.659823527 7.983714051 8.771034469
38 1 3.53380133 9.373680199 6.320979506
39 1 3.499038541 6.287144658 1.066070894
40 1 1.009224843 10.684183366 1.955781019
41 1 3.593567917 9.477345834 1.033351781
42 1 1.705556633 9.617312178 9.767355633
43 1 1.672024502 6.463388301 9.823625981
44 1 3.722576762 6.276248559 6.343975044
45 2 3.461347421 10.932435758 3.691749731
46 2 4.133038901 10.959802941 9.086824745
47 2 1.010043198 7.763504281 7.2486566
48 2 1.032237745 7.715067283 1.912684234
49 3 1.467251171 7.840258524 8.710822762
50 3 3.95506927 9.688026443 4.478844101
51 3 3.745606768 9.578492238 9.684152421
52 3 3.966449765 12.251128079 4.362867639
53 3 3.849456124 10.897185485 2.19325556
54 3 1.534059869 6.457820421 1.243126947
55 3 4.463977866 7.772490311 7.169131918
56 3 3.589541961 12.195473733 9.832588989
57 3 1.406643673 6.460537805 6.48167494
58 3 3.645489845 11.018310563 7.623391043
59 3 1.906763472 10.91498379 3.736249398
60 3 1.518705031 7.708058157 3.422960127
61 3 0.712316485 11.008515612 9.126866951
62 3 1.630453061 9.044144507 6.511937418
63 3 1.662756935 9.010305028 1.210916612
64 3 4.50728834 7.791250476 1.793757008
65 1 6.207613666 3.049953475 4.513942359
66 1 6.064020576 0.090191254 4.598044133
67 1 8.564605416 1.71585002 3.522102647
68 1 6.704079201 4.733729053 7.375628315
69 1 8.661073527 1.806857051 8.771034469
70 1 8.53505133 3.196823199 6.320979506
71 1 8.500288541 0.110287658 1.066070894
72 1 6.010474843 4.507326366 1.955781019
73 1 8.594817917 3.300488834 1.033351781
74 1 6.706806633 3.440455178 9.767355633
75 1 6.673274502 0.286531301 9.823625981
76 1 8.723826762 0.099391559 6.343975044
77 2 8.462597421 4.755578758 3.691749731
78 2 9.134288901 4.782945941 9.086824745
79 2 6.011293198 1.586647281 7.2486566
80 2 6.033487745 1.538210283 1.912684234
81 3 6.468501171 1.663401524 8.710822762
82 3 8.95631927 3.511169443 4.478844101
83 3 8.746856768 3.401635238 9.684152421
84 3 8.967699765 6.074271079 4.362867639
85 3 8.850706124 4.720328485 2.19325556
86 3 6.535309869 0.280963421 1.243126947
87 3 9.465227866 1.595633311 7.169131918
88 3 8.590791961 6.018616733 9.832588989
89 3 6.407893673 0.283680805 6.48167494
90 3 8.646739845 4.841453563 7.623391043
91 3 6.908013472 4.73812679 3.736249398
92 3 6.519955031 1.531201157 3.422960127
93 3 5.713566485 4.831658612 9.126866951
94 3 6.631703061 2.867287507 6.511937418
95 3 6.664006935 2.833448028 1.210916612
96 3 9.50853834 1.614393476 1.793757008
97 1 6.207613666 9.226810475 4.513942359
98 1 6.064020576 6.267048254 4.598044133
99 1 8.564605416 7.89270702 3.522102647
100 1 6.704079201 10.910586053 7.375628315
101 1 8.661073527 7.983714051 8.771034469
102 1 8.53505133 9.373680199 6.320979506
103 1 8.500288541 6.287144658 1.066070894
104 1 6.010474843 10.684183366 1.955781019
105 1 8.594817917 9.477345834 1.033351781
106 1 6.706806633 9.617312178 9.767355633
107 1 6.673274502 6.463388301 9.823625981
108 1 8.723826762 6.276248559 6.343975044
109 2 8.462597421 10.932435758 3.691749731
110 2 9.134288901 10.959802941 9.086824745
111 2 6.011293198 7.763504281 7.2486566
112 2 6.033487745 7.715067283 1.912684234
113 3 6.468501171 7.840258524 8.710822762
114 3 8.95631927 9.688026443 4.478844101
115 3 8.746856768 9.578492238 9.684152421
116 3 8.967699765 12.251128079 4.362867639
117 3 8.850706124 10.897185485 2.19325556
118 3 6.535309869 6.457820421 1.243126947
119 3 9.465227866 7.772490311 7.169131918
120 3 8.590791961 12.195473733 9.832588989
121 3 6.407893673 6.460537805 6.48167494
122 3 8.646739845 11.018310563 7.623391043
123 3 6.908013472 10.91498379 3.736249398
124 3 6.519955031 7.708058157 3.422960127
125 3 5.713566485 11.008515612 9.126866951
126 3 6.631703061 9.044144507 6.511937418
127 3 6.664006935 9.010305028 1.210916612
1 3 9.50853834 7.791250476 1.793757008
