# LAMMPS data file written by OVITO Pro 3.6.0
127 atoms
3 atom types
0.0 10.0025 xlo xhi
0.0 12.353714 ylo yhi
0.0 10.615024 zlo zhi

Masses

1 7.01
2 30.974
3 32.066

Atoms  # atomic

22 3 1.5207500925 0.3658873598 1.1394166762
16 2 1.01777438 1.6561883137 1.8756216657
28 3 1.5295722975 1.6519386361 3.3360260526
31 3 1.55210793 2.9180954914 1.1223477176
7 1 3.5375741725 0.1083482486 1.1424738031
32 3 4.45743408 1.6599438428 1.8735835811
2 1 1.065566325 0.1472216805 4.5625283856
25 3 1.5296123075 0.2487469729 6.4527244793
30 3 1.6771091725 2.7478736662 6.3659466581
12 1 3.55096752 0.0976012587 6.3963587018
3 1 3.50947715 1.7030706583 3.6931791501
11 1 1.5954687675 0.0722295715 9.850731657
15 2 1.0774993075 1.5739372859 7.1586872654
17 3 1.579054665 1.5802253263 8.6279339673
5 1 3.6132130775 1.6356811485 8.9121724649
23 3 4.50744658 1.6177682632 7.1357800436
8 1 1.060044945 4.719637604 2.0021845968
9 1 3.55396827 3.2189825496 1.1091532427
21 3 4.02276544 4.7541785883 2.2465636794
27 3 1.9730631425 4.791684464 3.7560413222
18 3 4.055153535 3.4933091226 4.4594671176
6 1 3.547666695 3.2249493934 6.4463448498
13 2 3.53268295 4.7697566217 3.7394712697
20 3 4.0708874675 6.0492307807 4.4416338773
4 1 1.0088221425 3.4746179534 4.8024597731
10 1 1.621665315 3.2105079017 9.7651639485
24 3 3.6388194775 5.9971845836 9.7356117217
29 3 0.654291532 4.7255920941 9.1516155613
19 3 3.63550865 3.4528754167 9.7230010732
26 3 3.93722406 4.7392553018 7.5227932036
14 2 4.2199047125 4.7277045792 9.0420048235
54 3 1.54154529 6.5802428232 1.1126668157
48 2 1.008872155 7.8510570287 1.8478209178
60 3 1.525921385 7.8705882505 3.3125350045
63 3 1.519919885 9.1365968613 1.1175072666
39 1 3.5467564675 6.27594614 1.1022959372
64 3 4.44727154 7.8443736694 1.84877627
34 1 1.0540134375 6.3600749323 4.5125103925
57 3 1.6203349825 6.7050400421 6.2735853342
62 3 1.5306325625 9.2026645237 6.4264735249
44 1 3.503935765 6.232967569 6.4241488347
35 1 3.5444558925 7.8354789954 3.6677455526
43 1 1.6285970475 6.2342152941 9.7551433659
47 2 1.0711577225 7.869748198 7.1171612915
49 3 1.6124130025 7.8314393309 8.5724704669
37 1 3.634888495 7.7987390499 8.8898915296
55 3 4.50640632 7.8260901727 7.1032980702
40 1 1.0384895575 10.933209842 2.0013353949
41 1 3.5380943025 9.4012257689 1.1261585112
53 3 4.03812928 10.928676029 2.257008863
33 1 1.0533332675 9.3912069068 4.5537497608
59 3 1.96681158 10.9334322088 3.7405221571
50 3 4.045951235 9.6518702722 4.4575033382
38 1 3.552667945 9.3600384864 6.3870917859
45 2 3.523420635 10.9331110123 3.739142204
52 3 4.046951485 12.2119674856 4.458734681
42 1 1.60876209 9.3424962125 9.8166043548
36 1 1.597419255 10.8966922634 7.3618163647
61 3 0.686979702 10.8861792528 9.0671836604
51 3 3.637369115 9.6176751919 9.7595273708
58 3 3.6444208775 10.9026961684 7.5701999008
46 2 4.15067741 10.8992988971 9.0458580772
56 3 3.6261363075 12.1668393683 9.7766069444
86 3 6.544055605 0.3869393238 1.1723020205
80 2 6.0156935475 1.6617104239 1.9127317896
92 3 6.5293419275 1.6614262884 3.37910182
95 3 6.5428853125 2.9396156612 1.18753458
71 1 8.558159005 0.1084460901 1.1358500281
96 3 9.458824115 1.667405486 1.8535211857
66 1 6.052972865 0.1318968983 4.5673051464
89 3 6.59428816 0.3586085515 6.4232147125
94 3 6.585646 2.8996761038 6.4293183513
76 1 8.60419051 0.099445174 6.3966983826
67 1 8.6033803075 1.6918658397 3.6883811592
75 1 6.596588735 0.0969337875 9.8643507328
79 2 6.0632454325 1.6277500641 7.1688670734
81 3 6.5749333225 1.6246492819 8.6324347375
69 1 8.64051959 1.647577775 8.9321711702
87 3 9.5169686475 1.637472437 7.1398031377
72 1 6.036728805 4.7547839203 2.0092223577
73 1 8.5571087425 3.2250482231 1.1364975446
85 3 9.0419499225 4.7415160315 2.2809882022
65 1 6.0490018725 3.2112614783 4.5817521941
91 3 6.966121095 4.7658528481 3.7624315667
82 3 9.0447506225 3.5131244799 4.5161195007
70 1 8.5732127675 3.1957822747 6.4584141321
77 2 8.5228401775 4.7732650765 3.760351022
84 3 9.04714122 6.0673042642 4.4508477181
74 1 6.61905435 3.1641567668 9.8819504426
68 1 6.52271027 4.7385634938 7.3789808585
93 3 5.7728728575 4.7261727187 9.2078751885
83 3 8.5822350225 3.4420288558 9.7911282972
90 3 8.57722377 4.7303729815 7.6135516588
78 2 9.121779875 4.7269262952 9.0813016423
88 3 8.5794543275 6.0101065684 9.7930496166
118 3 6.54531592 6.573127084 1.1811337205
112 2 6.0047508125 7.8503775744 1.8973718499
124 3 6.504885815 7.8617429913 3.3683063406
127 3 6.5326027425 9.1267385975 1.162366358
103 1 8.5633102925 6.2632218146 1.1312961828
1 3 9.45184237 7.8415076078 1.8354119548
98 1 6.04887184 6.3115495437 4.5754468698
121 3 6.60821164 6.5628735014 6.4191173133
126 3 6.589346925 9.1043166066 6.4192765386
108 1 8.6209847075 6.2574773376 6.428267464
99 1 8.54125478 7.8544666538 3.6549013735
107 1 6.613552975 6.2926730688 9.8814090763
111 2 6.0623152 7.8258554521 7.1538149694
113 3 6.5545682325 7.8266707973 8.6246751549
101 1 8.6195843575 7.7974789711 8.9173525967
119 3 9.51029698 7.8337988903 7.1422021331
104 1 6.0482416825 10.9337534054 2.0205485884
105 1 8.54433555 9.3993727118 1.1219761917
117 3 9.0255458225 10.9262299936 2.2543232619
97 1 6.0453409575 9.3843876567 4.5712220903
123 3 6.9693318975 10.9325798026 3.7656054588
114 3 9.05142229 9.6476082409 4.4516332299
102 1 8.59538831 9.3639299063 6.3921657673
109 2 8.52737131 10.9315420906 3.7410741384
116 3 9.0593142625 12.2107321142 4.4516119999
106 1 6.5871763825 9.356727691 9.8504344363
100 1 6.607231395 10.9077117763 7.3298120673
125 3 5.7098170975 10.9074894094 9.0558149697
115 3 8.6010197175 9.6221348826 9.7606844084
122 3 8.6257559 10.9075141169 7.571611699
110 2 9.1320124325 10.896840508 9.0487135187
120 3 8.6159434475 12.1713114128 9.7743884044
