# LAMMPS data file written by OVITO Pro 3.6.0
127 atoms
3 atom types
0.0 10.0025 xlo xhi
0.0 12.353714 ylo yhi
0.0 10.615024 zlo zhi

Masses

1 7.01
2 30.974
3 32.066

Atoms  # atomic

22 3 1.4989046325 0.3432071762 1.0741024335
16 2 1.02921724 1.6252299064 1.8498483874
28 3 1.5792247075 1.5612006067 3.2803502517
31 3 1.5573192325 2.9035675237 1.1141104589
7 1 3.5264313875 0.1123850718 1.1381959484
32 3 4.4650859925 1.6621428038 1.8720974777
2 1 1.074328515 0.1740057678 4.5539196012
25 3 1.5415853 0.2649352797 6.4445402958
30 3 1.6867515825 2.7766331124 6.4115912613
12 1 3.5524979025 0.0908334 6.3914864058
3 1 3.489292105 1.7220953779 3.701108573
11 1 1.595178695 0.0449286048 9.8176021671
15 2 1.0806400925 1.58023768 7.1622432984
17 3 1.569572295 1.5650302581 8.6360120006
5 1 3.601200075 1.6267494132 8.9156648078
23 3 4.5049559575 1.6010660418 7.1460553868
8 1 1.064966175 4.6442923023 2.0919983149
9 1 3.54844689 3.2162276713 1.1155859473
21 3 3.97995474 4.7570570037 2.2674540466
27 3 1.9660413875 4.8185661457 3.8481160404
18 3 4.07157764 3.5060210943 4.4761645504
6 1 3.5720928 3.2008720048 6.4432558779
13 2 3.522860495 4.7794295797 3.7728449052
20 3 4.082240305 6.0660688928 4.4526841173
4 1 0.952810143 4.170243235 5.4726074683
10 1 1.62112518 3.1982530175 9.7643678217
24 3 3.64403078 5.9886481672 9.7381593275
29 3 0.6650882305 4.7142143235 9.1259590483
19 3 3.639529655 3.4454878957 9.7213769745
26 3 3.9137481925 4.7352650522 7.5190779452
14 2 4.2160437475 4.7203047045 9.0349458325
54 3 1.5404550175 6.5769814427 1.1132187969
48 2 1.0083620275 7.8562950034 1.8286395695
60 3 1.5369141325 7.9025102475 3.2906999001
63 3 1.512077925 9.1369798264 1.0881036501
39 1 3.5366939525 6.2705969818 1.1070090079
64 3 4.4483118 7.8428294552 1.8368768281
34 1 1.0484120375 6.4502941057 4.4433535112
57 3 1.5517378375 6.594894328 6.2727467473
62 3 1.5547886 9.1175350806 6.3905522837
44 1 3.508696955 6.2346476741 6.4222487454
35 1 3.5575191575 7.8433236037 3.6538611012
43 1 1.632067915 6.2105702855 9.7632001691
47 2 1.05862459 7.8083502394 7.1017058166
49 3 1.6137933475 7.7846434622 8.5501152264
37 1 3.635328605 7.7853476239 8.8899976798
55 3 4.5003147975 7.8186285295 7.1039880467
40 1 1.044200985 10.9409803281 1.9938199579
41 1 3.53504354 9.4039806471 1.1153736468
53 3 4.03456839 10.9290466404 2.2512342899
33 1 1.05062259 9.3987550261 4.5384110511
59 3 1.9704824975 10.9293184221 3.7454581433
50 3 4.0541632875 9.6499430928 4.4497862157
38 1 3.5633806225 9.3497354889 6.3746191327
45 2 3.526741465 10.9339634185 3.7368599738
52 3 4.0554236025 12.2085455068 4.4580553194
42 1 1.6080019 9.3238173969 9.7895785037
36 1 1.5931982 10.8716512851 7.3210015974
61 3 0.6872507698 10.8617930214 9.0323026916
51 3 3.6346384325 9.6046914384 9.7460144452
58 3 3.63434836 10.8886129345 7.558353534
46 2 4.14655638 10.8877852356 9.0331943536
56 3 3.6269165025 12.1547450823 9.7655248593
86 3 6.5509073175 0.3911927075 1.1662833019
80 2 6.023045385 1.6658736255 1.9099188082
92 3 6.543295415 1.6691844208 3.3736350826
95 3 6.5451058675 2.9465090336 1.1818873872
71 1 8.565800915 0.1063407701 1.1321029246
96 3 9.4675362925 1.6625628301 1.8507931245
66 1 6.059814575 0.1387742108 4.5578683901
89 3 6.5962386475 0.3559945056 6.4200514354
94 3 6.56872177 2.8960070507 6.4335643609
76 1 8.60927178 0.0964820122 6.391550096
67 1 8.6703770525 1.7226142339 3.7064903902
75 1 6.5955784825 0.0864484492 9.8607840847
79 2 6.059614525 1.6176694334 7.1725398717
81 3 6.57988456 1.6161128655 8.6323073572
69 1 8.6514323175 1.6358664542 8.9312476631
87 3 9.51981936 1.6357923319 7.1347185412
72 1 6.0219051 4.7546603832 2.0158249027
73 1 8.5652107675 3.2210085586 1.1328035162
85 3 9.0466911075 4.7291005489 2.2964436771
65 1 6.0594244775 3.216845357 4.5758820858
91 3 6.9657910125 4.7841486985 3.7596079703
82 3 9.0411897325 3.5546823738 4.5758077807
70 1 8.529511845 3.1551014945 6.4568537236
77 2 8.523990465 4.7802078637 3.7739382527
84 3 9.05458308 6.0873543421 4.4480028917
74 1 6.619794535 3.1611795217 9.8761334094
68 1 6.5289018175 4.7299035403 7.3687692054
93 3 5.77164255 4.7194522983 9.1845115207
83 3 8.58550584 3.4386192308 9.7705245356
90 3 8.608771655 4.7188346126 7.5792651313
78 2 9.1337528675 4.7177721932 9.0584156506
88 3 8.5847556525 5.9993094224 9.7680936951
118 3 6.5480265975 6.5711751972 1.1731724525
112 2 6.00586109 7.8500687316 1.886799286
124 3 6.5039155725 7.863657817 3.3587952791
127 3 6.533532975 9.1270597941 1.1534603529
103 1 8.5743530525 6.2471866938 1.1255746849
1 3 9.4512922325 7.8396916118 1.8286183394
98 1 6.04699137 6.319270615 4.5701181278
121 3 6.5992594025 6.5540900107 6.4179708907
126 3 6.5827352725 9.0942606834 6.4123236979
108 1 8.584525595 6.2692998419 6.4197329847
99 1 8.5302420275 7.8622494936 3.6410593822
107 1 6.612912815 6.2820982896 9.8742651652
111 2 6.056093645 7.8193697523 7.1517874998
113 3 6.551537475 7.8202715734 8.6206520608
101 1 8.615333295 7.7911662232 8.912660756
119 3 9.4993842525 7.8227793774 7.1372236869
104 1 6.04775156 10.9399302624 2.017746222
105 1 8.5457058925 9.4018311008 1.1134629425
117 3 9.0296068375 10.9223138662 2.2524231726
97 1 6.046851335 9.3876613909 4.5624540805
123 3 6.972882785 10.9335063311 3.7623466465
114 3 9.0506320925 9.6451498518 4.4495739152
102 1 8.5876963875 9.3539357517 6.3832597622
109 2 8.5312222725 10.9330492437 3.7387919082
116 3 9.065565825 12.2086319828 4.4514527745
106 1 6.5859960875 9.352972162 9.8429402294
100 1 6.6070613525 10.9033879764 7.3187405973
125 3 5.7060161475 10.8967663857 9.0397438234
115 3 8.6011597525 9.6104235617 9.7484346707
122 3 8.6197844075 10.8964575428 7.5571752664
110 2 9.132462545 10.882757274 9.0324619169
120 3 8.622014965 12.156486956 9.7628286432
