# LAMMPS data file written by OVITO Pro 3.6.0
127 atoms
3 atom types
0.0 10.0025 xlo xhi
0.0 12.353714 ylo yhi
0.0 10.615024 zlo zhi

Masses

1 7.01
2 30.974
3 32.066

Atoms  # atomic

22 3 1.520880125 0.3518597175 1.1345762252
16 2 1.0065015625 1.6436616477 1.8530541247
28 3 1.514998655 1.6469847968 3.3199442912
31 3 1.5427956025 2.9031474974 1.1002260076
7 1 3.535823735 0.0887578525 1.1287591921
32 3 4.4438206775 1.6437604774 1.8516210964
2 1 1.0514928075 0.1087679043 4.55117031
25 3 1.51841951 0.2373840267 6.4337023563
30 3 1.64453103 2.7286759946 6.2698276157
12 1 3.545386125 0.1050347355 6.3861045886
3 1 3.5292720975 1.6678872809 3.6699216325
11 1 1.6005700425 0.1115067227 9.8335353181
15 2 1.073208235 1.5776186927 7.1167897657
17 3 1.6065915475 1.6144821752 8.5755594389
5 1 3.631127555 1.6564600954 8.8833845199
23 3 4.50928704 1.6401284855 7.0965256849
8 1 1.0508326425 4.737908747 1.9473792279
9 1 3.552888 3.2093219452 1.0888785469
21 3 4.043750685 4.737908747 2.219431678
27 3 1.97509365 4.737908747 3.6985291222
18 3 4.0568839675 3.460942392 4.4257219563
6 1 3.5117877275 3.236500116 6.4123130829
13 2 3.5335931775 4.737908747 3.705991484
20 3 4.0568839675 6.014875102 4.4257219563
4 1 1.0627156125 3.2044175207 4.5392814831
10 1 1.62716669 3.2227380786 9.7423522619
24 3 3.637249085 6.0103783501 9.7148911948
29 3 0.6499604495 4.737908747 9.1579421156
19 3 3.637249085 3.4654391439 9.7148911948
26 3 3.921000005 4.737908747 7.5072634235
14 2 4.21581369 4.737908747 9.0239805127
54 3 1.5427956025 6.5726699966 1.1002260076
48 2 1.0065015625 7.8321558463 1.8530541247
60 3 1.514998655 7.8288326972 3.3199442912
63 3 1.520880125 9.1239590118 1.1345762252
39 1 3.552888 6.2664955488 1.0888785469
64 3 4.4438206775 7.8320570166 1.8516210964
34 1 1.0627156125 6.2713999732 4.5392814831
57 3 1.64453103 6.7471414994 6.2698276157
62 3 1.51841951 9.2384285258 6.4337023563
44 1 3.5117877275 6.239317378 6.4123130829
35 1 3.5292720975 7.8079178594 3.6699216325
43 1 1.62716669 6.2530794154 9.7423522619
47 2 1.073208235 7.8981988013 7.1167897657
49 3 1.6065915475 7.8613353188 8.5755594389
37 1 3.631127555 7.8193573986 8.8833845199
55 3 4.50928704 7.8356890085 7.0965256849
40 1 1.027476805 10.914765747 1.9927266104
41 1 3.535823735 9.3870560589 1.1287591921
53 3 4.0353585875 10.914765747 2.2514253604
33 1 1.0514928075 9.3670430422 4.55117031
59 3 1.95892961 10.914765747 3.7265634006
50 3 4.0358987225 9.6347233172 4.45165446
38 1 3.545386125 9.3707862176 6.3861045886
45 2 3.515418635 10.914765747 3.7310747858
52 3 4.0358987225 12.1948081768 4.45165446
42 1 1.6005700425 9.3643128714 9.8335353181
36 1 1.596138935 10.914765747 7.3768578537
61 3 0.684034966 10.914765747 9.0809619616
51 3 3.6291570625 9.6394053748 9.7644421269
58 3 3.645891245 10.914765747 7.5677053702
46 2 4.149377085 10.914765747 9.044011063
56 3 3.6291570625 12.1901261192 9.7644421269
86 3 6.529211895 0.3644061495 1.1615914613
80 2 6.001359965 1.6411785512 1.896554493
92 3 6.506126125 1.6361505896 3.3660134954
95 3 6.537413945 2.9161188971 1.1732361426
71 1 8.539834425 0.0922960797 1.1242478069
96 3 9.449341745 1.6496284916 1.8335755556
66 1 6.0404197275 0.1103546153 4.5658508881
89 3 6.59252772 0.3616809201 6.414107022
94 3 6.6104221925 2.9041234408 6.4102856133
76 1 8.5985591025 0.1013650647 6.3893209409
67 1 8.5519674575 1.6546070383 3.661281003
75 1 6.5875164675 0.1104036596 9.8511562579
79 2 6.065616025 1.6408450009 7.1468302836
81 3 6.55755898 1.637645389 8.6179239997
69 1 8.6205445975 1.6641441055 8.9118752443
87 3 9.5128276125 1.6349399256 7.1339011844
72 1 6.046851335 4.737908747 1.9955077467
73 1 8.54989694 3.2144116754 1.1217002011
85 3 9.0391492225 4.737908747 2.2517862712
65 1 6.0492019225 3.1930397502 4.5676129821
91 3 6.9737930125 4.737908747 3.7483454298
82 3 9.0559734275 3.4564579938 4.4507521829
70 1 8.6302270175 3.2160053045 6.4195206842
77 2 8.532152505 4.737908747 3.7367644386
84 3 9.0559734275 6.0193595002 4.4507521829
74 1 6.607671505 3.173866786 9.8693822541
68 1 6.5418050425 4.737908747 7.3653511677
93 3 5.7694119925 4.737908747 9.1843629104
83 3 8.5722325225 3.4535919321 9.7837190105
90 3 8.5830552275 4.737908747 7.6060786819
78 2 9.1176688475 4.737908747 9.0771405529
88 3 8.5722325225 6.0222132081 9.7837190105
118 3 6.537413945 6.5596862431 1.1732361426
112 2 6.001359965 7.8346389428 1.896554493
124 3 6.506126125 7.8396669044 3.3660134954
127 3 6.529211895 9.1114076384 1.1615914613
103 1 8.54989694 6.2614058186 1.1217002011
1 3 9.449341745 7.8261890024 1.8335755556
98 1 6.0492019225 6.2827777438 4.5676129821
121 3 6.6104221925 6.5716816994 6.4102856133
126 3 6.59252772 9.1141378092 6.414107022
108 1 8.6302270175 6.2598121895 6.4195206842
99 1 8.5519674575 7.8212104557 3.661281003
107 1 6.607671505 6.301950708 9.8693822541
111 2 6.065616025 7.8349724931 7.1468302836
113 3 6.55755898 7.8381597513 8.6179239997
101 1 8.6205445975 7.8116733885 8.9118752443
119 3 9.5128276125 7.8408775684 7.1339011844
104 1 6.04219017 10.914765747 2.0144024895
105 1 8.539834425 9.3835228967 1.1242478069
117 3 9.0153632775 10.914765747 2.2463089188
97 1 6.0404197275 9.3654617668 4.5658508881
123 3 6.96081977 10.914765747 3.7598308858
114 3 9.0481714775 9.6331296881 4.4426635346
102 1 8.5985591025 9.3744552706 6.3893209409
109 2 8.51864913 10.914765747 3.7336011615
116 3 9.0481714775 12.1964018059 4.4426635346
106 1 6.5875164675 9.365412352 9.8511562579
100 1 6.60673127 10.914765747 7.329663457
125 3 5.7082567075 10.914765747 9.0562501857
115 3 8.602490085 9.6389112262 9.7665332866
122 3 8.6278864325 10.914765747 7.5728961169
110 2 9.128781625 10.914765747 9.0517281855
120 3 8.602490085 12.1906202678 9.7665332866
