# LAMMPS data file written by OVITO Pro 3.6.0
127 atoms
3 atom types
0.0 10.0025 xlo xhi
0.0 12.353714 ylo yhi
0.0 10.615024 zlo zhi

Masses

1 7.01
2 30.974
3 32.066

Atoms  # atomic

22 3 1.4962639725 0.3348214752 1.0584845487
16 2 1.0298073875 1.6158410838 1.8383310864
28 3 1.5894072525 1.5411381752 3.2626337766
31 3 1.55482861 2.8988607587 1.1058413552
7 1 3.522900505 0.1103262018 1.1346717604
32 3 4.463095495 1.6618216073 1.8557715708
2 1 1.072087955 0.1818540823 4.5504484883
25 3 1.555088675 0.2915797701 6.4347532436
30 3 1.67233798 2.8198216965 6.4522680332
12 1 3.5570190325 0.0917339858 6.3892572508
3 1 3.491252595 1.7318424582 3.6943574177
11 1 1.59475859 0.037954192 9.8100018099
15 2 1.0793797775 1.5941850231 7.1662770076
17 3 1.5621804475 1.5604099691 8.6437609681
5 1 3.5951685675 1.6249704784 8.9133082725
23 3 4.504345805 1.600151867 7.1475945653
8 1 1.050122465 4.6094424751 2.1318365
9 1 3.5487369625 3.2221203929 1.1171038957
21 3 4.0176141525 4.7581317768 2.2568496376
27 3 1.99245799 4.8386285772 3.8049447378
18 3 4.0873915925 3.5097642697 4.4670993199
6 1 3.5817252075 3.186047548 6.409277186
13 2 3.534143315 4.7831480477 3.7592895196
20 3 4.0953735875 6.0703679853 4.4517287651
4 1 1.0944635475 4.590355987 6.4126952238
10 1 1.6196148025 3.1900254439 9.7675417139
24 3 3.644370865 5.9883269706 9.7354100362
29 3 0.6887151357 4.7122747904 9.0356251941
19 3 3.63898952 3.4451666992 9.7191053594
26 3 3.84948213 4.7350673928 7.5136961281
14 2 4.2012600525 4.719378176 9.0222927239
54 3 1.5375342875 6.5780685696 1.1019350264
48 2 1.0055213175 7.8494263385 1.8307944193
60 3 1.525601305 7.8830160868 3.2965381633
63 3 1.5115878025 9.1350650007 1.0971158055
39 1 3.5334931525 6.2639753911 1.1127729659
64 3 4.45003223 7.8415817301 1.8292127808
34 1 1.0318579 6.3764806645 4.4348190319
57 3 1.5342134575 6.540426803 6.3117251155
62 3 1.5701824475 9.0753471472 6.37567002
44 1 3.5565789225 6.249422716 6.3978872653
35 1 3.5534981525 7.8340089034 3.6451037064
43 1 1.6309176275 6.2075930404 9.7740062635
47 2 1.0531332175 7.7945264334 7.1101872208
49 3 1.6045310325 7.778478959 8.5557942642
37 1 3.633968265 7.7862617988 8.8973326614
55 3 4.49776416 7.8225323031 7.1119705448
40 1 1.044561075 10.9404861795 1.9959854228
41 1 3.5336932025 9.4034741448 1.1155116421
53 3 4.031147535 10.9282683564 2.2504806232
33 1 1.04802194 9.3875625612 4.5272652759
59 3 1.969672295 10.9237468971 3.7513707116
50 3 4.05513353 9.6455698781 4.4470050794
38 1 3.57225284 9.3516873757 6.3682501183
45 2 3.526101305 10.9313320775 3.7370722743
52 3 4.0563438325 12.2047035017 4.4585117655
42 1 1.6052112025 9.3245339123 9.7972956262
36 1 1.59299815 10.8746532376 7.3056204276
61 3 0.6881389918 10.8561350203 9.0203926346
51 3 3.6305974225 9.6033819448 9.7429254732
58 3 3.6272565875 10.8849809425 7.5540862944
46 2 4.1433055675 10.8854874448 9.028534358
56 3 3.6267964725 12.1530402698 9.7601855023
86 3 6.5477665325 0.3846588282 1.1568040855
80 2 6.0206147775 1.6618463147 1.8975735353
92 3 6.534693265 1.660623297 3.3614702651
95 3 6.550097115 2.9390968052 1.1660179263
71 1 8.5630102175 0.1004497781 1.1285681216
96 3 9.468506535 1.6547305754 1.8395624292
66 1 6.0587643125 0.139992287 4.5536329955
89 3 6.5962986625 0.3588692148 6.418098271
94 3 6.563860555 2.9009732438 6.4375025348
76 1 8.60883167 0.098028203 6.3876437671
67 1 8.6648956825 1.7172774294 3.6948669389
75 1 6.592787785 0.0828700724 9.8554871877
79 2 6.059334455 1.6197572111 7.1719560454
81 3 6.5803146675 1.6155940095 8.631765991
69 1 8.6521324925 1.6294178155 8.9238702214
87 3 9.518358995 1.6323579994 7.1357694286
72 1 6.021645035 4.7571187723 2.0021633668
73 1 8.5671112425 3.2184513399 1.1315297133
85 3 9.039919415 4.73000237 2.2879516579
65 1 6.083900595 3.2259994591 4.5590041977
91 3 6.93521337 4.819159124 3.7234319685
82 3 8.918649105 3.4972499574 4.5315431306
70 1 8.542074985 3.137238024 6.4011885377
77 2 8.4965536075 4.7606519345 3.7632383085
84 3 9.0401094625 6.0576683673 4.4542339108
74 1 6.6179840825 3.1634526051 9.8637881365
68 1 6.5444357 4.7205147177 7.3457982935
93 3 5.7606898125 4.7192917 9.141308373
83 3 8.60439056 3.4455867255 9.745483694
90 3 8.6472912825 4.717648656 7.5343423497
78 2 9.14884664 4.7162650401 9.0247235644
88 3 8.6060609775 5.99284843 9.7398258862
118 3 6.5538680575 6.5802922381 1.153056982
112 2 6.00782158 7.8526753652 1.8765557878
124 3 6.5081366275 7.8672156866 3.3475221236
127 3 6.53035218 9.1337925682 1.1464544371
103 1 8.5753433 6.2424675751 1.1225069429
1 3 9.44780136 7.8353307508 1.8238840387
98 1 6.0465212525 6.325188044 4.553845296
121 3 6.5851358725 6.5497291497 6.4163149469
126 3 6.5812449 9.0905051543 6.4085022893
108 1 8.547476335 6.2833954295 6.3888644949
99 1 8.53361287 7.8429900535 3.636080936
107 1 6.611752525 6.2764032274 9.8619941974
111 2 6.05383308 7.819641534 7.1519891853
113 3 6.5563486775 7.8182085032 8.617616164
101 1 8.6145030875 7.7952676563 8.9096991644
119 3 9.497073675 7.8145641576 7.1280416911
104 1 6.04619117 10.9409062058 2.0167484098
105 1 8.54481567 9.4002127643 1.1136115528
117 3 9.029276755 10.9187930578 2.2518075012
97 1 6.0477815675 9.3855241984 4.5541212866
123 3 6.9728527775 10.9314679683 3.762134346
114 3 9.04934177 9.6388123965 4.4482576523
102 1 8.582605115 9.3537751534 6.3759990858
109 2 8.5313323 10.9286019067 3.7383991523
116 3 9.0671762275 12.2016644881 4.4528327276
106 1 6.5864361975 9.3551093545 9.8401909381
100 1 6.60753147 10.9060316712 7.3135392355
125 3 5.7027553325 10.8922572801 9.030731668
115 3 8.6037003875 9.6067668624 9.743254539
122 3 8.61967438 10.8920966818 7.5507637919
110 2 9.133062695 10.8793970638 9.0261990528
120 3 8.622094985 12.1520025578 9.7568736148
