# LAMMPS data file written by OVITO Pro 3.6.0
127 atoms
3 atom types
0.0 10.0025 xlo xhi
0.0 12.353714 ylo yhi
0.0 10.615024 zlo zhi

Masses

1 7.01
2 30.974
3 32.066

Atoms  # atomic

22 3 1.4965640475 0.3390637406 1.0633918743
16 2 1.02977738 1.6195842591 1.8437765937
28 3 1.5869666425 1.5482168533 3.2698201479
31 3 1.5563389875 2.9017021129 1.1125500504
7 1 3.5236807 0.1116502729 1.1354466572
32 3 4.462735405 1.6622416336 1.8650809468
2 1 1.0733982825 0.1809942638 4.5528156387
25 3 1.55002741 0.2814163695 6.4387126476
30 3 1.6821304275 2.8031318289 6.4311122904
12 1 3.55400828 0.0909370477 6.3909131945
3 1 3.4903023575 1.7274198286 3.7003973664
11 1 1.5935983 0.0410216192 9.8102990306
15 2 1.0815803275 1.592072538 7.1626042093
17 3 1.5678218575 1.5644249261 8.6383685359
5 1 3.596919005 1.6245010373 8.9154525074
23 3 4.50660637 1.5962851545 7.149664495
8 1 1.061325265 4.6182506732 2.132303561
9 1 3.5448559925 3.2179324839 1.1169340553
21 3 3.9694021025 4.7589100608 2.2728464788
27 3 1.970112405 4.8293879992 3.881107535
18 3 4.0814901175 3.5095048417 4.4795719731
6 1 3.585956265 3.1855904606 6.437141624
13 2 3.5221503175 4.7832592311 3.782907948
20 3 4.089322075 6.0726410687 4.457407803
4 1 1.1033257625 4.4603084397 5.84048174
10 1 1.6190146525 3.1954363707 9.7647393476
24 3 3.645011025 5.9871163067 9.737968257
29 3 0.6716568722 4.7121759607 9.1025316903
19 3 3.6391795675 3.444524306 9.7203791623
26 3 3.8883018325 4.7348573796 7.515882823
14 2 4.20993222 4.7187975514 9.0292880247
54 3 1.5401949525 6.5783156439 1.1104376606
48 2 1.0067616275 7.8561344052 1.8254019871
60 3 1.535043665 7.9033503001 3.2883009047
63 3 1.5092472175 9.137560451 1.0851102134
39 1 3.5324128825 6.2689168767 1.1099493695
64 3 4.44743158 7.8433853723 1.8331403396
34 1 1.026876655 6.4465879915 4.4197456978
57 3 1.52466107 6.5363747848 6.2843808136
62 3 1.5680819225 9.0719375222 6.3728782687
44 1 3.5357737225 6.2444935841 6.4171853789
35 1 3.558029285 7.8426317958 3.6492011056
43 1 1.6320579125 6.2022068211 9.7694736483
47 2 1.053403285 7.7809620555 7.0990414456
49 3 1.6127930975 7.7660881838 8.5432260758
37 1 3.636208825 7.7827162829 8.8934157175
55 3 4.4990944925 7.8203456957 7.1080429859
40 1 1.04454107 10.9426480795 1.9934802772
41 1 3.53356317 9.4050554202 1.1131444918
53 3 4.0322078 10.9289601644 2.2503532429
33 1 1.048882155 9.3965931261 4.5303224028
59 3 1.9704424875 10.9276012558 3.7490035613
50 3 4.0555236275 9.6487077214 4.4480347368
38 1 3.56933211 9.3481542135 6.3699485221
45 2 3.5268514925 10.9335928071 3.7368599738
52 3 4.0569239775 12.2070630611 4.45828885
42 1 1.606621555 9.3182829331 9.7855447946
36 1 1.5917478375 10.8679698784 7.3067243901
61 3 0.688876176 10.8552208455 9.0220804234
51 3 3.63178772 9.6011088614 9.7421505765
58 3 3.6280167775 10.8839061694 7.5545002803
46 2 4.14335558 10.8844373791 9.0290438792
56 3 3.625446135 12.1511995664 9.7617883709
86 3 6.5490268475 0.389843682 1.1612305505
80 2 6.020604775 1.6648606209 1.9048448268
92 3 6.5377240225 1.6650088655 3.3684655659
95 3 6.5438255475 2.945668981 1.1766754104
71 1 8.5647106425 0.104030255 1.13006484
96 3 9.4683364925 1.6583625674 1.8466001901
66 1 6.0603247025 0.1398415717 4.5562761365
89 3 6.5980491 0.3560204484 6.4193933039
94 3 6.5667312725 2.8971065313 6.4376936053
76 1 8.6111222425 0.098556942 6.3903718283
67 1 8.671427315 1.7240472647 3.705067977
75 1 6.5946382475 0.0832159764 9.857833108
79 2 6.0616650375 1.6167058438 7.1736969093
81 3 6.5817750325 1.6132715113 8.6334007047
69 1 8.653222765 1.6342604713 8.9275111746
87 3 9.5208696225 1.6350758165 7.135058222
72 1 6.01286284 4.75661227 2.0106129259
73 1 8.566521095 3.2209591438 1.1327716711
85 3 9.045360775 4.7299406015 2.2945117428
65 1 6.0765887675 3.2228616157 4.5696404517
91 3 6.94689629 4.8079295979 3.7369024339
82 3 8.9680314475 3.5256634996 4.556477822
70 1 8.5426851375 3.1499252883 6.4320251825
77 2 8.5073763125 4.76991722 3.7694374825
84 3 9.047001185 6.0728140207 4.4521958262
74 1 6.61953447 3.1612907052 9.8714734139
68 1 6.5393044175 4.7230595828 7.3621029703
93 3 5.766981385 4.7181798657 9.1668162757
83 3 8.5888166675 3.4404352267 9.7618839061
90 3 8.62275515 4.7181057435 7.5640644169
78 2 9.138984175 4.7163144549 9.0474397158
88 3 8.5897569025 5.9968016185 9.757850197
118 3 6.5471063675 6.5745971759 1.1648715037
112 2 6.005160915 7.8519341424 1.8815554641
124 3 6.5040256 7.8671415643 3.3532117764
127 3 6.5314024425 9.130086454 1.1491188081
103 1 8.5750132175 6.2425046362 1.1241628867
1 3 9.4496118125 7.8379250307 1.827121621
98 1 6.047091395 6.3243726989 4.5631865171
121 3 6.5919975875 6.5513104251 6.4173233742
126 3 6.5817150175 9.0916169886 6.4098822424
108 1 8.5635503525 6.2701893093 6.4088844301
99 1 8.52621102 7.8535277715 3.6380871755
107 1 6.6126627525 6.2780956862 9.8692867189
111 2 6.055213425 7.8188508963 7.1518405749
113 3 6.5533679325 7.8191720929 8.6191341124
101 1 8.613732895 7.7894367033 8.9110685024
119 3 9.496793605 7.8128222839 7.1305680668
104 1 6.0468613375 10.9414991841 2.0172260858
105 1 8.54489569 9.4014851968 1.1121997546
117 3 9.02977688 10.9201272589 2.2519667266
97 1 6.0474014725 9.3881184783 4.5583672962
123 3 6.97330289 10.9326168637 3.7619751206
114 3 9.050001935 9.6412707856 4.448576103
102 1 8.58474565 9.3506620175 6.3794171235
109 2 8.5317023925 10.9309367586 3.7385583777
116 3 9.0673962825 12.2044934886 4.4524081267
106 1 6.586186135 9.3535157254 9.8405412339
100 1 6.60837168 10.9042650901 7.3153119445
125 3 5.702885365 10.8930849789 9.0330988184
115 3 8.60311024 9.6065939104 9.7443266564
122 3 8.6203845575 10.8921955115 7.5521225149
110 2 9.13380288 10.878742317 9.0274091655
120 3 8.62399546 12.1517925447 9.7588055491
