# LAMMPS data file written by OVITO Pro 3.6.0
127 atoms
3 atom types
0.0 10.0025 xlo xhi
0.0 12.353714 ylo yhi
0.0 10.615024 zlo zhi

Masses

1 7.01
2 30.974
3 32.066

Atoms  # atomic

22 3 1.4971041825 0.330649626 1.0545293907
16 2 1.0291272175 1.610862537 1.8346582881
28 3 1.591697825 1.5348130736 3.2572625745
31 3 1.5509376375 2.8961058804 1.101733341
7 1 3.52220033 0.1070687745 1.1317950889
32 3 4.4620452325 1.6600426725 1.8440950444
2 1 1.0701374675 0.1823544077 4.5486651643
25 3 1.5646210575 0.3184738054 6.4280233184
30 3 1.6496123 2.8608113196 6.4877115984
12 1 3.56137012 0.0977472796 6.3875482319
3 1 3.49523359 1.7288899206 3.6838166989
11 1 1.595258715 0.0370676895 9.8084201713
15 2 1.0745785775 1.6096765805 7.1711599186
17 3 1.5541784475 1.5622877336 8.6514250154
5 1 3.5921478125 1.6269841338 8.9090516479
23 3 4.503665635 1.6128638387 7.1426691942
8 1 1.03569886 4.6087383134 2.1174425274
9 1 3.55036737 3.2236522534 1.1168915952
21 3 4.0594246025 4.7559575231 2.2387616367
27 3 2.013443235 4.8372449613 3.7344715934
18 3 4.09190272 3.5065399503 4.4518030703
6 1 3.56657142 3.18795002 6.3789500625
13 2 3.5492770975 4.7798372523 3.73294303
20 3 4.0985743875 6.0654388534 4.4412941965
4 1 1.2496623375 4.6613404276 6.9601650866
10 1 1.6121929475 3.1792777128 9.7805769634
24 3 3.6366789425 5.9917365957 9.7376816514
29 3 0.6972732748 4.7174262892 8.9729540924
19 3 3.63094751 3.446945634 9.7216741952
26 3 3.7712325725 4.7377605024 7.5193751659
14 2 4.17936458 4.7218118577 9.0171762824
54 3 1.5319829 6.5724105686 1.1002260076
48 2 1.0033807825 7.839815149 1.8411546828
60 3 1.514478525 7.8569126891 3.3094248024
63 3 1.5167290875 9.1275415889 1.1129746514
39 1 3.53324309 6.2609116701 1.1161910036
64 3 4.4512025225 7.8395186598 1.8250835364
34 1 1.0325880825 6.2961691698 4.4775338885
57 3 1.5487570925 6.5421316156 6.3475826665
62 3 1.57179285 9.0810298557 6.3817418138
44 1 3.56817182 6.2564149182 6.3745766726
35 1 3.5464163825 7.8266584436 3.640963847
43 1 1.622145435 6.2237764058 9.7893237431
47 2 1.054683605 7.8049282606 7.1215559115
49 3 1.592698075 7.7927598523 8.5733621289
37 1 3.6283768675 7.7919568609 8.8995299714
55 3 4.4981342525 7.8214945911 7.1154204276
40 1 1.0445910825 10.9361994408 1.9997112962
41 1 3.5341933275 9.4015346117 1.1174329615
53 3 4.028826955 10.9270206313 2.2504275481
33 1 1.0470116875 9.3750235415 4.5272440459
59 3 1.9684619925 10.9188795338 3.7549692048
50 3 4.05497349 9.6413943227 4.4454128258
38 1 3.574073295 9.3535651402 6.3678573624
45 2 3.524981025 10.9279595135 3.73738011
52 3 4.0559837425 12.2017139029 4.4578111739
42 1 1.6015902975 9.3332185733 9.8107342465
36 1 1.5933282325 10.8874516853 7.3019263993
61 3 0.6872327653 10.859779366 9.0176327284
51 3 3.627886745 9.6080269412 9.7430846986
58 3 3.62582623 10.888674703 7.5520694398
46 2 4.14255538 10.888155847 9.0265599636
56 3 3.6281068 12.1571417028 9.7568629997
86 3 6.545135875 0.3780767694 1.1497663246
80 2 6.0192744425 1.6574236851 1.8869797414
92 3 6.53067226 1.6552370777 3.3511843068
95 3 6.5537280225 2.9314869173 1.1520273247
71 1 8.5603095425 0.0948730645 1.1251500839
96 3 9.4682164625 1.648010155 1.8333314101
66 1 6.0572839425 0.1394783725 4.5507987841
89 3 6.5918775575 0.3625098544 6.4158266558
94 3 6.568941825 2.9058529608 6.4323542482
76 1 8.604210515 0.1006812867 6.3851810816
67 1 8.651862425 1.7043183834 3.6814601636
75 1 6.5905572275 0.0837421211 9.8497232297
79 2 6.059694545 1.6275647584 7.1667759137
81 3 6.579424445 1.6211655345 8.6278490471
69 1 8.6483715525 1.6251557841 8.9191040756
87 3 9.513117685 1.6299737326 7.1380091987
72 1 6.034328205 4.7570817111 1.9879923097
73 1 8.565600865 3.2114097229 1.1322196899
85 3 9.03081714 4.7299653089 2.272039737
65 1 6.093783065 3.2254311883 4.5476991971
91 3 6.92269024 4.8256324701 3.7067876108
82 3 8.8806896175 3.4724436997 4.4953671288
70 1 8.5758734325 3.1479981089 6.3737699308
77 2 8.484020475 4.7528567409 3.7474643828
84 3 9.03125725 6.042868618 4.44502007
74 1 6.613232895 3.1678011125 9.85204792
68 1 6.5595694825 4.7186493069 7.326128654
93 3 5.7409848875 4.7214288925 9.1027227608
83 3 8.6259059375 3.4490210579 9.7437852902
90 3 8.631217265 4.7214659537 7.5324528755
78 2 9.144825635 4.719032272 9.0122827563
88 3 8.625975955 5.993540238 9.7389448392
118 3 6.557058855 6.5850978328 1.1387691597
112 2 6.0090918975 7.8530583304 1.8696772522
124 3 6.51206761 7.8661038524 3.3394228603
127 3 6.527891565 9.1369921801 1.1418475167
103 1 8.5722925375 6.2468531435 1.1231332293
1 3 9.44560081 7.8336135845 1.8220264095
98 1 6.0479616125 6.3265963674 4.5431984269
121 3 6.5820150925 6.5484073023 6.4110817401
126 3 6.57984455 9.0898504075 6.4062412892
108 1 8.556158505 6.2798499136 6.370330663
99 1 8.5415248475 7.832946484 3.6344992974
107 1 6.6073214175 6.2746366463 9.8508378072
111 2 6.054813325 7.8183814552 7.1497175701
113 3 6.5615299725 7.8159477735 8.614102591
101 1 8.61591344 7.8017904173 8.9068012628
119 3 9.49801391 7.8158118827 7.1258019211
104 1 6.0448808425 10.9393125767 2.0153047665
105 1 8.543995465 9.3982855849 1.1146836702
117 3 9.02881664 10.9168411709 2.2512236749
97 1 6.0488818425 9.3813980579 4.549429446
123 3 6.972202615 10.9297631558 3.7612957591
114 3 9.0485115625 9.6357610291 4.4474827555
102 1 8.581004715 9.3544546077 6.3731224143
109 2 8.5308221725 10.925389941 3.7378790161
116 3 9.0664760525 12.1983784002 4.4528008825
106 1 6.58732642 9.3566535687 9.8373142666
100 1 6.605791035 10.9082059249 7.3096222917
125 3 5.7018751125 10.8918619612 9.0269208744
115 3 8.605210765 9.6079281115 9.7421081164
122 3 8.6182240175 10.8926278915 7.5485770969
110 2 9.1319724225 10.8811142301 9.0239805127
120 3 8.61919426 12.1529414401 9.7541561686
