# LAMMPS data file written by OVITO Pro 3.6.0
127 atoms
3 atom types
0.0 10.0025 xlo xhi
0.0 12.353714 ylo yhi
0.0 10.615024 zlo zhi

Masses

1 7.01
2 30.974
3 32.066

Atoms  # atomic

22 3 1.506716585 0.3514532803 1.0977951671
16 2 1.0256463475 1.6365706159 1.8604846415
28 3 1.561970395 1.5918378175 3.3013573842
31 3 1.55574884 2.9088178522 1.1173798863
7 1 3.5307124575 0.1110841021 1.1408921645
32 3 4.463015475 1.6610062622 1.8743797079
2 1 1.0719179125 0.162750299 4.5567962727
25 3 1.5341534425 0.2532004868 6.4505271693
30 3 1.6900224 2.7563112528 6.3949469036
12 1 3.5517377125 0.092907218 6.3935032604
3 1 3.4945434175 1.7131636427 3.6979665259
11 1 1.5962889725 0.0543982207 9.8320067546
15 2 1.079769875 1.5726401459 7.163389721
17 3 1.572172945 1.5686004814 8.6350778784
5 1 3.607081545 1.6301960994 8.9156966529
23 3 4.5054560825 1.60771234 7.1424250486
8 1 1.0633157625 4.6818599466 2.0413646504
9 1 3.551507655 3.2158694136 1.1125818955
21 3 4.001700175 4.7554757283 2.2562870413
27 3 1.9688620925 4.8081396111 3.7974080707
18 3 4.0612050475 3.5009684253 4.4685535782
6 1 3.56353066 3.2131886577 6.4470560564
13 2 3.52864194 4.7753528541 3.7549585898
20 3 4.07609877 6.0581254547 4.4462089526
4 1 0.9433127692 3.8291942526 5.1241905355
10 1 1.6212152025 3.2030462585 9.7651851786
24 3 3.64103003 5.9924654648 9.7368961396
29 3 0.658584605 4.7194152371 9.1414569833
19 3 3.6373791175 3.448588678 9.7217166553
26 3 3.93042236 4.737303415 7.521190335
14 2 4.21893447 4.7236649148 9.0394784478
54 3 1.54058505 6.576969089 1.1143439895
48 2 1.008912165 7.8537007235 1.8376623399
60 3 1.5321929525 7.8887358564 3.3008903231
63 3 1.516439015 9.1358062236 1.1010009043
39 1 3.54200528 6.273611288 1.1036440453
64 3 4.44807174 7.8433730186 1.842608941
34 1 1.0554938075 6.4164696367 4.4790624519
57 3 1.5922679675 6.6605790254 6.270804198
62 3 1.5406950775 9.1676788057 6.411028665
44 1 3.501895255 6.2324116519 6.4241700647
35 1 3.551987775 7.8410628741 3.6605167212
43 1 1.6301374325 6.2228375235 9.758285413
47 2 1.0663565225 7.8435953855 7.1096564696
49 3 1.61352328 7.8103268337 8.5622694288
37 1 3.63514856 7.7917097867 8.8890954028
55 3 4.5035155975 7.8213957614 7.1025974786
40 1 1.04222049 10.9377807162 1.9966010942
41 1 3.5368539925 9.4028564591 1.1204370132
53 3 4.036828955 10.9290589941 2.2538668159
33 1 1.0521529725 9.3970378598 4.5470516806
59 3 1.969232185 10.9308008678 3.7425071666
50 3 4.05069242 9.6507954991 4.4533210187
38 1 3.557469145 9.3546028522 6.3807970766
45 2 3.525501155 10.9336792831 3.7378896312
52 3 4.0518627125 12.2099661839 4.458734681
42 1 1.609062165 9.3333421104 9.8022846874
36 1 1.595738835 10.8832390689 7.3421891853
61 3 0.686519587 10.8724295691 9.0487772088
51 3 3.6370990475 9.6107941732 9.7525957601
58 3 3.64066994 10.8954445383 7.5643085625
46 2 4.14979719 10.8931591012 9.0394572177
56 3 3.627926755 12.1603783759 9.7709915967
86 3 6.5493869375 0.3898177392 1.1700516354
80 2 6.0210348825 1.6642799964 1.9124027238
92 3 6.5393644325 1.667059582 3.3771486556
95 3 6.5448458025 2.9439147536 1.1856875658
71 1 8.564120495 0.1075838008 1.1337800984
96 3 9.4645955575 1.6650706341 1.8526189087
66 1 6.05699387 0.1357413741 4.5618384091
89 3 6.5953984375 0.3573348836 6.4214101585
94 3 6.5740531025 2.8975636187 6.4312609007
76 1 8.607131245 0.0971321882 6.3935244904
67 1 8.642380055 1.706887956 3.697106709
75 1 6.5965387225 0.0913259426 9.8633104604
79 2 6.0604247275 1.6215979145 7.1712979139
81 3 6.5782541525 1.6202142985 8.632211822
69 1 8.6472512725 1.6406844026 8.9334555881
87 3 9.5193292375 1.6383124895 7.1353766727
72 1 6.029126905 4.754536846 2.0121521044
73 1 8.5618699325 3.2213174015 1.1342046994
85 3 9.042560075 4.7344991219 2.2889494702
65 1 6.0505422575 3.212657448 4.5793107386
91 3 6.96550094 4.7738209936 3.7638858249
82 3 9.046080955 3.5389808033 4.5494931362
70 1 8.5394443275 3.1737061877 6.4659083391
77 2 8.52148984 4.7806155363 3.76613621
84 3 9.0517123625 6.079843284 4.4473766053
74 1 6.6197645275 3.1621060503 9.8801034284
68 1 6.5224001925 4.7360803973 7.3754248254
93 3 5.772942875 4.7224418971 9.1995105496
83 3 8.583765405 3.4391133793 9.7819250714
90 3 8.5892967875 4.7237019759 7.5987543154
78 2 9.12676112 4.7216883205 9.0710050691
88 3 8.5814948375 6.0043250303 9.7817127709
118 3 6.54711637 6.5715458086 1.1782039739
112 2 6.0055510125 7.8499699019 1.8923403285
124 3 6.5042756625 7.8623730307 3.3639647957
127 3 6.5337230225 9.1263803398 1.1581097334
103 1 8.5692317725 6.2557354639 1.1274429291
1 3 9.4518523725 7.8407046164 1.8317710015
98 1 6.0467213025 6.3165775053 4.5742579872
121 3 6.60517088 6.5584138106 6.4185016419
126 3 6.5860961125 9.099029217 6.4157948108
108 1 8.6069612025 6.262122334 6.4257623183
99 1 8.535433325 7.8618171136 3.6470887159
107 1 6.61329291 6.2875709849 9.87860671
111 2 6.059294445 7.8221493379 7.1525517815
113 3 6.5524877125 7.8229276219 8.6227007605
101 1 8.6176238675 7.7939087477 8.914868681
119 3 9.5056258125 7.8292527235 7.140376349
104 1 6.0483217025 10.9373483362 2.0189987948
105 1 8.545515845 9.4010404631 1.1171145107
117 3 9.02817648 10.9241669233 2.2533466797
97 1 6.04619117 9.3865495566 4.5670716159
123 3 6.9714924375 10.9333580866 3.7637265996
114 3 9.051042195 9.6467681883 4.4507097228
102 1 8.59178741 9.3588648835 6.3877605324
109 2 8.529711895 10.9327156934 3.7397791054
116 3 9.062685105 12.2101638433 4.4513572393
106 1 6.586546225 9.3541087037 9.8466130277
100 1 6.606911315 10.9048580684 7.3238676539
125 3 5.7090769125 10.901806701 9.0478643167
115 3 8.6003395475 9.6158221348 9.7541137085
122 3 8.6219849575 10.9021031901 7.5641174921
110 2 9.1318323875 10.8891564979 9.0401259642
120 3 8.6191242425 12.1634173895 9.7682529205
