ITEM: TIMESTEP
2227
ITEM: NUMBER OF ATOMS
127
ITEM: BOX BOUNDS pp pp pp
0.0000000000000000e+00 1.0002500000000000e+01
0.0000000000000000e+00 1.2353714000000000e+01
0.0000000000000000e+00 1.0615024000000000e+01
ITEM: ATOMS id type xs ys zs
22 3 0.149673 0.0267652 0.0993431
16 2 0.102887 0.130395 0.172836
28 3 0.15913 0.124239 0.306854
31 3 0.155055 0.234432 0.10379
7 1 0.352132 0.00866693 0.106622
32 3 0.446093 0.134376 0.173725
2 1 0.106987 0.0147611 0.428512
25 3 0.156423 0.0257796 0.605559
30 3 0.16492 0.231575 0.611182
12 1 0.356048 0.00791238 0.601746
3 1 0.349436 0.139949 0.347038
11 1 0.159486 0.00300053 0.924013
15 2 0.107431 0.130299 0.675567
17 3 0.155379 0.126463 0.815017
5 1 0.359125 0.1317 0.839287
23 3 0.450254 0.130557 0.672883
8 1 0.103544 0.373065 0.199476
9 1 0.354948 0.260946 0.105218
21 3 0.405841 0.384982 0.210905
27 3 0.201294 0.391562 0.35181
18 3 0.409088 0.283845 0.419387
6 1 0.356568 0.258056 0.600936
13 2 0.354839 0.386915 0.351666
20 3 0.409755 0.490981 0.418397
4 1 0.124935 0.377323 0.65569
10 1 0.161179 0.257354 0.92139
24 3 0.363577 0.485015 0.917349
29 3 0.0697099 0.381863 0.845307
19 3 0.363004 0.279021 0.915841
26 3 0.377029 0.383509 0.708371
14 2 0.417832 0.382218 0.849473
54 3 0.15316 0.532019 0.103648
48 2 0.100313 0.634612 0.173448
60 3 0.15141 0.635996 0.311768
63 3 0.151635 0.73885 0.104849
39 1 0.353236 0.506804 0.105152
64 3 0.445009 0.634588 0.171934
34 1 0.103233 0.509658 0.421811
57 3 0.154837 0.529568 0.597981
62 3 0.15714 0.735085 0.601199
44 1 0.356728 0.50644 0.600524
35 1 0.354553 0.633547 0.343001
43 1 0.162174 0.503798 0.922214
47 2 0.105442 0.631788 0.670894
49 3 0.15923 0.630803 0.807663
37 1 0.362747 0.630738 0.83839
55 3 0.449701 0.633129 0.670316
40 1 0.104433 0.885256 0.188385
41 1 0.353331 0.761029 0.105269
53 3 0.402782 0.884513 0.212004
33 1 0.104675 0.758883 0.426494
59 3 0.196797 0.883854 0.353741
50 3 0.405396 0.780445 0.418785
38 1 0.357318 0.757146 0.599891
45 2 0.35241 0.884589 0.352084
52 3 0.405497 0.987696 0.419953
42 1 0.160119 0.755499 0.924231
36 1 0.159293 0.88131 0.687886
61 3 0.0687061 0.87907 0.849516
51 3 0.362698 0.777744 0.917858
58 3 0.362492 0.881409 0.711451
46 2 0.414152 0.881367 0.850357
56 3 0.36272 0.984088 0.919156
86 3 0.65435 0.0306043 0.108315
80 2 0.601777 0.134164 0.177765
92 3 0.652904 0.133987 0.315702
95 3 0.655209 0.237296 0.108528
71 1 0.855817 0.00767972 0.105996
96 3 0.946585 0.133402 0.172711
66 1 0.605577 0.0112904 0.428713
89 3 0.659023 0.0293442 0.60441
94 3 0.65673 0.235221 0.605967
76 1 0.860206 0.00814988 0.601523
67 1 0.86497 0.13796 0.346816
75 1 0.658891 0.0067787 0.927904
79 2 0.605818 0.131747 0.675154
81 3 0.657778 0.131229 0.812796
69 1 0.864621 0.131552 0.840234
87 3 0.951074 0.131942 0.672444
72 1 0.603282 0.385073 0.187281
73 1 0.856346 0.259955 0.106662
85 3 0.902856 0.382878 0.21404
65 1 0.609226 0.26109 0.428421
91 3 0.692096 0.390622 0.349202
82 3 0.887847 0.281085 0.423491
70 1 0.857373 0.254822 0.600448
77 2 0.84819 0.384731 0.353034
84 3 0.9029 0.489154 0.418748
74 1 0.661158 0.256425 0.928123
68 1 0.655793 0.381962 0.690166
93 3 0.573955 0.382187 0.857532
83 3 0.862375 0.279189 0.917924
90 3 0.862906 0.38219 0.709603
78 2 0.914254 0.381993 0.849012
88 3 0.862382 0.485161 0.917468
118 3 0.655542 0.533046 0.107279
112 2 0.600759 0.635684 0.176135
124 3 0.651044 0.63674 0.314594
127 3 0.652626 0.739615 0.107569
103 1 0.857015 0.505666 0.105806
1 3 0.944324 0.63411 0.171646
98 1 0.604645 0.512121 0.427997
121 3 0.658037 0.530076 0.603963
126 3 0.65782 0.735799 0.603507
108 1 0.855402 0.508337 0.600124
99 1 0.853939 0.634056 0.342392
107 1 0.660567 0.507915 0.928009
111 2 0.60533 0.632877 0.673547
113 3 0.655989 0.63268 0.811501
101 1 0.861376 0.631534 0.839075
119 3 0.949564 0.632669 0.671294
104 1 0.604337 0.885508 0.189854
105 1 0.854186 0.760766 0.10501
117 3 0.902656 0.883689 0.212079
97 1 0.604737 0.759399 0.428584
123 3 0.697046 0.884735 0.354337
114 3 0.904625 0.779989 0.41898
102 1 0.857886 0.757218 0.600387
109 2 0.852869 0.884381 0.352131
116 3 0.906421 0.987426 0.419481
106 1 0.658568 0.757396 0.926735
100 1 0.660414 0.88299 0.688611
125 3 0.570045 0.881667 0.850391
115 3 0.860306 0.777736 0.917766
122 3 0.861607 0.881729 0.711122
110 2 0.912969 0.880797 0.850114
120 3 0.861704 0.983748 0.918901
