ITEM: TIMESTEP
2227
ITEM: NUMBER OF ATOMS
127
ITEM: BOX BOUNDS pp pp pp
0.0000000000000000e+00 1.0002500000000000e+01
0.0000000000000000e+00 1.2353714000000000e+01
0.0000000000000000e+00 1.0615024000000000e+01
ITEM: ATOMS id type xs ys zs
22 3 0.149619 0.0274463 0.100178
16 2 0.102952 0.131101 0.173695
28 3 0.158657 0.125324 0.308037
31 3 0.155595 0.234885 0.104809
7 1 0.35228 0.00903779 0.106966
32 3 0.446162 0.134554 0.175702
2 1 0.107313 0.014651 0.428903
25 3 0.154964 0.0227799 0.606566
30 3 0.168171 0.226906 0.60585
12 1 0.355312 0.00736111 0.602063
3 1 0.348943 0.13983 0.3486
11 1 0.15932 0.00332059 0.92419
15 2 0.108131 0.128874 0.674761
17 3 0.156743 0.126636 0.813787
5 1 0.359602 0.131499 0.83989
23 3 0.450548 0.129215 0.673542
8 1 0.106106 0.373835 0.200876
9 1 0.354397 0.260483 0.105222
21 3 0.396841 0.385221 0.214116
27 3 0.196962 0.390926 0.365624
18 3 0.408047 0.284085 0.422003
6 1 0.358506 0.257865 0.606418
13 2 0.352127 0.387192 0.356373
20 3 0.40883 0.491564 0.419915
4 1 0.110305 0.36105 0.550209
10 1 0.161861 0.258662 0.919898
24 3 0.36441 0.484641 0.917376
29 3 0.0671489 0.381438 0.857514
19 3 0.363827 0.278825 0.915719
26 3 0.388733 0.383274 0.708042
14 2 0.420888 0.381974 0.850614
54 3 0.153981 0.532497 0.10461
48 2 0.100651 0.635933 0.171964
60 3 0.153466 0.639755 0.309778
63 3 0.150887 0.739661 0.102224
39 1 0.353153 0.507452 0.104564
64 3 0.444632 0.634901 0.172693
34 1 0.102662 0.521834 0.416367
57 3 0.152428 0.529102 0.592027
62 3 0.156769 0.734349 0.600364
44 1 0.353489 0.505475 0.604538
35 1 0.355714 0.63484 0.343777
43 1 0.163165 0.502052 0.920344
47 2 0.105314 0.629848 0.668773
49 3 0.161239 0.628644 0.804824
37 1 0.36353 0.62999 0.837814
55 3 0.449797 0.633036 0.669621
40 1 0.104428 0.885778 0.187798
41 1 0.353268 0.761314 0.104865
53 3 0.40312 0.88467 0.211997
33 1 0.104862 0.760629 0.426784
59 3 0.196995 0.88456 0.353179
50 3 0.405451 0.781037 0.419032
38 1 0.356844 0.756708 0.600088
45 2 0.352597 0.885045 0.352035
52 3 0.405591 0.988129 0.419998
42 1 0.160622 0.75429 0.921858
36 1 0.159135 0.879733 0.688338
61 3 0.0688704 0.878701 0.849935
51 3 0.363088 0.777184 0.91777
58 3 0.362711 0.881023 0.71168
46 2 0.414232 0.881066 0.850591
56 3 0.362454 0.983607 0.91962
86 3 0.654739 0.0315568 0.109395
80 2 0.60191 0.134766 0.179448
92 3 0.653609 0.134778 0.31733
95 3 0.654219 0.238444 0.11085
71 1 0.856257 0.00842097 0.106459
96 3 0.946597 0.13424 0.173961
66 1 0.605881 0.0113198 0.429229
89 3 0.65964 0.0288189 0.604746
94 3 0.656509 0.234513 0.60647
76 1 0.860897 0.00797792 0.602012
67 1 0.866926 0.139557 0.34904
75 1 0.659299 0.00673611 0.928668
79 2 0.606015 0.130868 0.675806
81 3 0.658013 0.13059 0.813319
69 1 0.865106 0.132289 0.841026
87 3 0.951849 0.132355 0.672166
72 1 0.601136 0.385035 0.189412
73 1 0.856438 0.260728 0.106714
85 3 0.90431 0.382876 0.216157
65 1 0.607507 0.260882 0.430488
91 3 0.694516 0.389189 0.352039
82 3 0.896579 0.285393 0.429248
70 1 0.854055 0.254978 0.605936
77 2 0.850525 0.386112 0.355104
84 3 0.904474 0.491578 0.419424
74 1 0.661788 0.255898 0.929953
68 1 0.653767 0.382319 0.693555
93 3 0.576554 0.381924 0.86357
83 3 0.858667 0.278494 0.919629
90 3 0.86206 0.381918 0.712581
78 2 0.91367 0.381773 0.852324
88 3 0.858761 0.485425 0.919249
118 3 0.654547 0.532196 0.109738
112 2 0.600366 0.635593 0.177254
124 3 0.65024 0.636824 0.315893
127 3 0.652977 0.739056 0.108254
103 1 0.857287 0.505314 0.105903
1 3 0.944725 0.634459 0.172126
98 1 0.604558 0.511941 0.42988
121 3 0.659035 0.530311 0.604551
126 3 0.658007 0.735942 0.60385
108 1 0.856141 0.507555 0.603756
99 1 0.852408 0.635722 0.34273
107 1 0.661101 0.508195 0.929747
111 2 0.60537 0.632915 0.673747
113 3 0.655173 0.632941 0.811975
101 1 0.861158 0.630534 0.839477
119 3 0.949442 0.632427 0.671743
104 1 0.604535 0.885685 0.190035
105 1 0.854276 0.761025 0.104776
117 3 0.902752 0.883955 0.212149
97 1 0.604589 0.759943 0.429426
123 3 0.697156 0.884966 0.354401
114 3 0.904774 0.780435 0.419083
102 1 0.85826 0.756911 0.60098
109 2 0.852957 0.88483 0.352195
116 3 0.906513 0.987921 0.419444
106 1 0.658454 0.757142 0.927039
100 1 0.660672 0.882671 0.689147
125 3 0.570146 0.881766 0.850973
115 3 0.860096 0.777628 0.917975
122 3 0.861823 0.881694 0.711456
110 2 0.913152 0.880605 0.850437
120 3 0.862184 0.983655 0.919339
