ITEM: TIMESTEP
2227
ITEM: NUMBER OF ATOMS
127
ITEM: BOX BOUNDS pp pp pp
0.0000000000000000e+00 1.0002500000000000e+01
0.0000000000000000e+00 1.2353714000000000e+01
0.0000000000000000e+00 1.0615024000000000e+01
ITEM: ATOMS id type xs ys zs
22 3 0.150634 0.0284492 0.103419
16 2 0.102539 0.132476 0.175269
28 3 0.156158 0.128855 0.311008
31 3 0.155536 0.235461 0.105264
7 1 0.352983 0.00899196 0.107479
32 3 0.44619 0.134454 0.176578
2 1 0.107165 0.0131742 0.429278
25 3 0.153377 0.0204959 0.607679
30 3 0.16896 0.223116 0.602443
12 1 0.355085 0.00752059 0.602307
3 1 0.349367 0.138676 0.348371
11 1 0.159589 0.00440339 0.926235
15 2 0.10795 0.127301 0.674835
17 3 0.157178 0.126974 0.813477
5 1 0.360618 0.13196 0.839913
23 3 0.450433 0.13014 0.67286
8 1 0.106305 0.378984 0.192309
9 1 0.355062 0.260316 0.104812
21 3 0.40007 0.384943 0.212556
27 3 0.196837 0.389206 0.357739
18 3 0.406019 0.283394 0.420965
6 1 0.356264 0.260099 0.607352
13 2 0.352776 0.386552 0.35374
20 3 0.407508 0.490389 0.41886
4 1 0.0943077 0.309963 0.48273
10 1 0.162081 0.259278 0.91994
24 3 0.364012 0.485074 0.917275
29 3 0.065842 0.382024 0.861181
19 3 0.363647 0.279154 0.915845
26 3 0.392944 0.383472 0.708542
14 2 0.421788 0.382368 0.851574
54 3 0.15402 0.532388 0.104978
48 2 0.100866 0.635736 0.173119
60 3 0.153181 0.638572 0.310964
63 3 0.151606 0.739519 0.103721
39 1 0.354112 0.507832 0.10397
64 3 0.444696 0.6349 0.173585
34 1 0.105523 0.519396 0.421955
57 3 0.159187 0.539156 0.590748
62 3 0.154031 0.742099 0.603958
44 1 0.350102 0.504497 0.605196
35 1 0.35511 0.634713 0.344843
43 1 0.162973 0.503722 0.91929
47 2 0.106609 0.634918 0.669773
49 3 0.161312 0.632225 0.806618
37 1 0.363424 0.630718 0.837407
55 3 0.450239 0.633121 0.669108
40 1 0.104196 0.885384 0.188092
41 1 0.353597 0.761136 0.105552
53 3 0.403582 0.884678 0.212328
33 1 0.105189 0.760665 0.42836
59 3 0.196874 0.884819 0.352567
50 3 0.404968 0.781206 0.41953
38 1 0.355658 0.75723 0.60111
45 2 0.352462 0.885052 0.352132
52 3 0.405085 0.988364 0.42004
42 1 0.160866 0.755509 0.923435
36 1 0.159534 0.880969 0.691679
61 3 0.0686348 0.880094 0.85245
51 3 0.363619 0.777968 0.918754
58 3 0.363976 0.881957 0.712604
46 2 0.414876 0.881772 0.851572
56 3 0.362702 0.98435 0.920487
86 3 0.654775 0.0315547 0.110226
80 2 0.601953 0.134719 0.18016
92 3 0.653773 0.134944 0.318148
95 3 0.654321 0.238302 0.111699
71 1 0.856198 0.00870862 0.106809
96 3 0.946223 0.134783 0.174528
66 1 0.605548 0.0109879 0.429753
89 3 0.659375 0.0289253 0.604936
94 3 0.657241 0.23455 0.605864
76 1 0.860498 0.00786259 0.602309
67 1 0.864022 0.138168 0.34829
75 1 0.659489 0.00739259 0.929184
79 2 0.605891 0.131264 0.67558
81 3 0.657661 0.131152 0.813207
69 1 0.864509 0.132809 0.841586
87 3 0.951695 0.132617 0.672196
72 1 0.602762 0.384867 0.189557
73 1 0.855973 0.260757 0.106849
85 3 0.90403 0.383245 0.215633
65 1 0.604903 0.260056 0.431399
91 3 0.696376 0.386428 0.354581
82 3 0.904382 0.286471 0.42859
70 1 0.853731 0.256903 0.609128
77 2 0.851936 0.386978 0.354793
84 3 0.904945 0.492147 0.41897
74 1 0.661811 0.255964 0.930766
68 1 0.652077 0.383373 0.69481
93 3 0.57715 0.382269 0.86665
83 3 0.858162 0.278387 0.921517
90 3 0.858715 0.382371 0.715849
78 2 0.912448 0.382208 0.854544
88 3 0.857935 0.486034 0.921497
118 3 0.654548 0.531949 0.110994
112 2 0.600405 0.635434 0.17827
124 3 0.650265 0.636438 0.316906
127 3 0.653209 0.738756 0.109101
103 1 0.856709 0.506385 0.106212
1 3 0.944949 0.634684 0.172564
98 1 0.604521 0.51131 0.430923
121 3 0.660352 0.530886 0.604662
126 3 0.658445 0.736542 0.604407
108 1 0.860481 0.506902 0.605346
99 1 0.85333 0.636393 0.343578
107 1 0.661164 0.508962 0.930625
111 2 0.605778 0.633182 0.673814
113 3 0.655085 0.633245 0.812311
101 1 0.861547 0.630896 0.839835
119 3 0.950325 0.633757 0.672667
104 1 0.604681 0.885349 0.190202
105 1 0.854338 0.760989 0.105239
117 3 0.902592 0.884282 0.212279
97 1 0.604468 0.759816 0.430246
123 3 0.696975 0.885026 0.354566
114 3 0.904878 0.78088 0.419284
102 1 0.858964 0.757575 0.601766
109 2 0.852758 0.884974 0.35231
116 3 0.906042 0.98838 0.419345
106 1 0.65849 0.75719 0.927611
100 1 0.660526 0.882719 0.689953
125 3 0.570765 0.882472 0.852364
115 3 0.859819 0.778375 0.918897
122 3 0.861983 0.882496 0.712586
110 2 0.912955 0.881448 0.851635
120 3 0.861697 0.984596 0.920229
