ITEM: TIMESTEP
2227
ITEM: NUMBER OF ATOMS
127
ITEM: BOX BOUNDS pp pp pp
0.0000000000000000e+00 1.0002500000000000e+01
0.0000000000000000e+00 1.2353714000000000e+01
0.0000000000000000e+00 1.0615024000000000e+01
ITEM: ATOMS id type xs ys zs
22 3 0.149853 0.0277817 0.101187
16 2 0.102896 0.131558 0.174267
28 3 0.157883 0.126375 0.309029
31 3 0.155693 0.235036 0.104956
7 1 0.352555 0.00909727 0.107225
32 3 0.446397 0.134546 0.176363
2 1 0.107406 0.0140853 0.429007
25 3 0.15412 0.0214458 0.607115
30 3 0.168633 0.224761 0.604011
12 1 0.355161 0.00735272 0.602117
3 1 0.348842 0.139399 0.348667
11 1 0.159478 0.00363685 0.924878
15 2 0.108037 0.127916 0.674727
17 3 0.156918 0.126685 0.813565
5 1 0.36003 0.131681 0.83991
23 3 0.450383 0.129602 0.673202
8 1 0.10647 0.375943 0.197079
9 1 0.354756 0.260345 0.105095
21 3 0.397896 0.385071 0.213608
27 3 0.196555 0.39005 0.362516
18 3 0.407056 0.283803 0.421682
6 1 0.35712 0.259102 0.606994
13 2 0.352198 0.386882 0.355425
20 3 0.408122 0.491032 0.41947
4 1 0.0952572 0.33757 0.515553
10 1 0.162072 0.25889 0.919863
24 3 0.364312 0.484765 0.917394
29 3 0.0664922 0.381603 0.859721
19 3 0.363862 0.278903 0.915813
26 3 0.391277 0.383307 0.708343
14 2 0.421499 0.382096 0.851147
54 3 0.154007 0.532389 0.104872
48 2 0.100811 0.635946 0.172269
60 3 0.153653 0.639687 0.310004
63 3 0.15117 0.739614 0.102506
39 1 0.353581 0.507588 0.104287
64 3 0.44472 0.634856 0.173045
34 1 0.104815 0.522134 0.418591
57 3 0.155135 0.533839 0.590931
62 3 0.15544 0.73804 0.602029
44 1 0.350782 0.504678 0.605015
35 1 0.355663 0.634896 0.344216
43 1 0.163166 0.502729 0.919753
47 2 0.105836 0.632065 0.669024
49 3 0.161339 0.630146 0.805473
37 1 0.363442 0.630203 0.837492
55 3 0.449919 0.632897 0.669239
40 1 0.104394 0.885643 0.18783
41 1 0.353416 0.761227 0.105075
53 3 0.403356 0.884677 0.21208
33 1 0.105036 0.760804 0.427546
59 3 0.196999 0.884699 0.352845
50 3 0.405315 0.781137 0.419197
38 1 0.356249 0.756836 0.600528
45 2 0.352586 0.885075 0.352035
52 3 0.405441 0.988249 0.419976
42 1 0.16076 0.754738 0.922238
36 1 0.15928 0.880031 0.689683
61 3 0.0687079 0.879233 0.850898
51 3 0.363373 0.777474 0.918134
58 3 0.363344 0.881404 0.712043
46 2 0.414552 0.881337 0.850982
56 3 0.362601 0.983894 0.919972
86 3 0.654927 0.031666 0.109871
80 2 0.602154 0.134848 0.179926
92 3 0.654166 0.135116 0.317817
95 3 0.654347 0.238512 0.111341
71 1 0.856366 0.008608 0.106651
96 3 0.946517 0.13458 0.174356
66 1 0.60583 0.0112334 0.429379
89 3 0.659459 0.0288168 0.604808
94 3 0.656708 0.234424 0.606081
76 1 0.860712 0.00780996 0.602123
67 1 0.866821 0.139441 0.349174
75 1 0.659393 0.00699777 0.928946
79 2 0.60581 0.130946 0.675697
81 3 0.657824 0.13082 0.813216
69 1 0.864927 0.132419 0.841378
87 3 0.951744 0.132413 0.672134
72 1 0.60204 0.384877 0.189903
73 1 0.856307 0.260732 0.106717
85 3 0.904443 0.382808 0.216339
65 1 0.605791 0.260395 0.431076
91 3 0.696405 0.387264 0.354178
82 3 0.903893 0.287742 0.431069
70 1 0.852738 0.255397 0.608275
77 2 0.852186 0.386945 0.355528
84 3 0.905232 0.492755 0.419029
74 1 0.661814 0.255889 0.930392
68 1 0.652727 0.382873 0.694183
93 3 0.57702 0.382027 0.865237
83 3 0.858336 0.278347 0.920443
90 3 0.860662 0.381977 0.714013
78 2 0.913147 0.381891 0.853358
88 3 0.858261 0.485628 0.920214
118 3 0.654639 0.531919 0.11052
112 2 0.600436 0.635442 0.177748
124 3 0.650229 0.636542 0.316419
127 3 0.65319 0.738811 0.108663
103 1 0.857221 0.505693 0.106036
1 3 0.944893 0.634602 0.172267
98 1 0.604548 0.511528 0.430533
121 3 0.659761 0.530536 0.604612
126 3 0.658109 0.736156 0.60408
108 1 0.858238 0.507483 0.604778
99 1 0.852811 0.636428 0.34301
107 1 0.661126 0.508519 0.930216
111 2 0.605458 0.632957 0.673742
113 3 0.65499 0.63303 0.812118
101 1 0.861318 0.630674 0.839627
119 3 0.949701 0.633233 0.67237
104 1 0.604624 0.885558 0.190084
105 1 0.854357 0.761053 0.104895
117 3 0.902735 0.884132 0.212192
97 1 0.604534 0.759906 0.429811
123 3 0.697114 0.885038 0.354436
114 3 0.904837 0.780749 0.419177
102 1 0.858555 0.757176 0.601342
109 2 0.852909 0.885001 0.352217
116 3 0.90633 0.988256 0.419354
106 1 0.658435 0.757098 0.927265
100 1 0.660541 0.8826 0.68947
125 3 0.570459 0.882064 0.851599
115 3 0.859901 0.777938 0.918362
122 3 0.861763 0.882039 0.711932
110 2 0.913018 0.88093 0.850913
120 3 0.861986 0.984035 0.919718
