ITEM: TIMESTEP
2227
ITEM: NUMBER OF ATOMS
127
ITEM: BOX BOUNDS pp pp pp
0.0000000000000000e+00 1.0002500000000000e+01
0.0000000000000000e+00 1.2353714000000000e+01
0.0000000000000000e+00 1.0615024000000000e+01
ITEM: ATOMS id type xs ys zs
22 3 0.152037 0.0296176 0.10734
16 2 0.101752 0.134064 0.176695
28 3 0.152919 0.13372 0.314274
31 3 0.155172 0.236212 0.105732
7 1 0.353669 0.0087705 0.107628
32 3 0.445632 0.134368 0.176503
2 1 0.10653 0.0119172 0.429818
25 3 0.152923 0.0201354 0.607886
30 3 0.167669 0.222433 0.599711
12 1 0.355008 0.00790056 0.602576
3 1 0.35086 0.137859 0.34792
11 1 0.159507 0.00584679 0.927999
15 2 0.107723 0.127406 0.674392
17 3 0.157866 0.127915 0.812804
5 1 0.361231 0.132404 0.839581
23 3 0.450632 0.130954 0.672234
8 1 0.105978 0.382042 0.188618
9 1 0.355308 0.260568 0.104489
21 3 0.402176 0.384838 0.21164
27 3 0.197257 0.387874 0.353842
18 3 0.405414 0.282774 0.420109
6 1 0.354678 0.261051 0.607285
13 2 0.35318 0.386099 0.352281
20 3 0.406987 0.489669 0.418429
4 1 0.100857 0.281261 0.452421
10 1 0.162126 0.259882 0.919938
24 3 0.363791 0.485456 0.917154
29 3 0.0654128 0.382524 0.862138
19 3 0.36346 0.279501 0.915966
26 3 0.393624 0.38363 0.708693
14 2 0.421885 0.382695 0.851812
54 3 0.154116 0.532653 0.10482
48 2 0.100862 0.635522 0.174076
60 3 0.152554 0.637103 0.312061
63 3 0.151954 0.739583 0.105276
39 1 0.354587 0.508021 0.103843
64 3 0.444616 0.634981 0.174166
34 1 0.105375 0.514831 0.425106
57 3 0.161993 0.542755 0.59101
62 3 0.153025 0.744931 0.605413
44 1 0.350306 0.504542 0.605194
35 1 0.354357 0.634261 0.345524
43 1 0.162819 0.504643 0.918994
47 2 0.107089 0.637035 0.67048
49 3 0.161201 0.633934 0.807579
37 1 0.363398 0.631287 0.837482
55 3 0.450528 0.633501 0.669174
40 1 0.103823 0.885014 0.188538
41 1 0.353721 0.761004 0.106091
53 3 0.403712 0.884647 0.212624
33 1 0.105307 0.760193 0.428991
59 3 0.196632 0.885032 0.35238
50 3 0.404494 0.781293 0.419924
38 1 0.355178 0.75767 0.601703
45 2 0.352254 0.885006 0.35225
52 3 0.404594 0.988526 0.42004
42 1 0.160836 0.75625 0.924784
36 1 0.159702 0.882058 0.693528
61 3 0.0686808 0.881207 0.854184
51 3 0.363646 0.778525 0.919407
58 3 0.364351 0.882544 0.713159
46 2 0.414964 0.882269 0.852175
56 3 0.362523 0.984873 0.921016
86 3 0.654242 0.0313217 0.110438
80 2 0.601419 0.134511 0.180191
92 3 0.652771 0.134488 0.318332
95 3 0.654125 0.237954 0.111873
71 1 0.855602 0.00877842 0.107004
96 3 0.945646 0.134972 0.174613
66 1 0.605146 0.0106767 0.430268
89 3 0.659264 0.0290284 0.605106
94 3 0.6584 0.234721 0.605681
76 1 0.860204 0.00804982 0.602608
67 1 0.860123 0.136952 0.347468
75 1 0.659494 0.00784653 0.929282
79 2 0.606173 0.131762 0.675351
81 3 0.657329 0.131511 0.813228
69 1 0.863836 0.133367 0.841465
87 3 0.951459 0.132549 0.672613
72 1 0.603522 0.384887 0.189281
73 1 0.855497 0.261059 0.107065
85 3 0.903969 0.383813 0.214883
65 1 0.604749 0.259943 0.431629
91 3 0.696438 0.385783 0.354444
82 3 0.904249 0.284378 0.425446
70 1 0.857107 0.25869 0.608422
77 2 0.852071 0.386383 0.354248
84 3 0.904488 0.491132 0.419297
74 1 0.66174 0.25613 0.93094
68 1 0.652108 0.383574 0.695145
93 3 0.577143 0.382571 0.867438
83 3 0.858009 0.278623 0.922384
90 3 0.857508 0.382911 0.717243
78 2 0.91195 0.382632 0.855514
88 3 0.857731 0.486502 0.922565
118 3 0.654368 0.532077 0.11127
112 2 0.600325 0.635467 0.178744
124 3 0.650326 0.636387 0.317315
127 3 0.653097 0.738785 0.109502
103 1 0.856117 0.506991 0.106575
1 3 0.944948 0.634749 0.172907
98 1 0.604736 0.510903 0.431035
121 3 0.660656 0.531247 0.60472
126 3 0.65877 0.73697 0.604735
108 1 0.861883 0.506526 0.605582
99 1 0.853912 0.635798 0.344314
107 1 0.66119 0.509375 0.930889
111 2 0.60608 0.633482 0.673933
113 3 0.655293 0.633548 0.812497
101 1 0.861743 0.631185 0.840069
119 3 0.950792 0.634125 0.672839
104 1 0.604673 0.885058 0.190348
105 1 0.85422 0.760854 0.105697
117 3 0.902329 0.884449 0.212371
97 1 0.604383 0.759641 0.430637
123 3 0.696759 0.884963 0.354743
114 3 0.904916 0.780948 0.419371
102 1 0.859324 0.757985 0.602181
109 2 0.852524 0.884879 0.352432
116 3 0.905705 0.988426 0.419369
106 1 0.658553 0.757402 0.927971
100 1 0.660558 0.88295 0.690513
125 3 0.570839 0.882932 0.853113
115 3 0.859887 0.778886 0.919516
122 3 0.86236 0.882934 0.713292
110 2 0.912973 0.88207 0.852444
120 3 0.861379 0.985235 0.920807
