ITEM: TIMESTEP
2227
ITEM: NUMBER OF ATOMS
127
ITEM: BOX BOUNDS pp pp pp
0.0000000000000000e+00 1.0002500000000000e+01
0.0000000000000000e+00 1.2353714000000000e+01
0.0000000000000000e+00 1.0615024000000000e+01
ITEM: ATOMS id type xs ys zs
22 3 0.149589 0.0271029 0.0997157
16 2 0.102955 0.130798 0.173182
28 3 0.158901 0.124751 0.30736
31 3 0.155444 0.234655 0.104177
7 1 0.352202 0.00893061 0.106893
32 3 0.446198 0.13452 0.174825
2 1 0.107182 0.0147206 0.42868
25 3 0.15547 0.0236026 0.606193
30 3 0.167192 0.228257 0.607843
12 1 0.355613 0.00742562 0.601907
3 1 0.349038 0.140188 0.348031
11 1 0.159436 0.00307229 0.924162
15 2 0.107911 0.129045 0.675107
17 3 0.156179 0.126311 0.814295
5 1 0.359427 0.131537 0.839688
23 3 0.450322 0.129528 0.673347
8 1 0.104986 0.373122 0.200832
9 1 0.354785 0.260822 0.105238
21 3 0.401661 0.385158 0.212609
27 3 0.199196 0.391674 0.358449
18 3 0.408637 0.284106 0.420828
6 1 0.358083 0.257902 0.603793
13 2 0.353326 0.387183 0.354148
20 3 0.409435 0.49138 0.41938
4 1 0.109419 0.371577 0.604115
10 1 0.161921 0.258224 0.920162
24 3 0.364346 0.484739 0.917135
29 3 0.0688543 0.381446 0.851211
19 3 0.363808 0.278877 0.915599
26 3 0.384852 0.383291 0.707836
14 2 0.420021 0.382021 0.849955
54 3 0.153715 0.532477 0.103809
48 2 0.100527 0.63539 0.172472
60 3 0.152522 0.638109 0.310554
63 3 0.151121 0.739459 0.103355
39 1 0.353261 0.507052 0.10483
64 3 0.444892 0.634755 0.172323
34 1 0.10316 0.516159 0.417787
57 3 0.153383 0.52943 0.594603
62 3 0.156979 0.734625 0.600627
44 1 0.355569 0.505874 0.60272
35 1 0.355261 0.634142 0.343391
43 1 0.163051 0.502488 0.920771
47 2 0.105287 0.630946 0.669823
49 3 0.160413 0.629647 0.806008
37 1 0.363306 0.630277 0.838183
55 3 0.449664 0.633213 0.669991
40 1 0.10443 0.885603 0.188034
41 1 0.353281 0.761186 0.105088
53 3 0.403014 0.884614 0.212009
33 1 0.104776 0.759898 0.426496
59 3 0.196918 0.884248 0.353402
50 3 0.405412 0.780783 0.418935
38 1 0.357136 0.756994 0.599928
45 2 0.352522 0.884862 0.352055
52 3 0.405533 0.987938 0.420019
42 1 0.160481 0.754796 0.922965
36 1 0.15926 0.880274 0.688234
61 3 0.0687967 0.878775 0.849776
51 3 0.362969 0.777368 0.917843
58 3 0.362635 0.88111 0.711641
46 2 0.414227 0.881151 0.850543
56 3 0.362589 0.983756 0.919469
86 3 0.654613 0.0311371 0.108978
80 2 0.601911 0.134522 0.178763
92 3 0.653306 0.134423 0.316671
95 3 0.654846 0.237912 0.109846
71 1 0.856087 0.00813114 0.106318
96 3 0.946614 0.133946 0.173298
66 1 0.605725 0.011332 0.42898
89 3 0.659465 0.0290495 0.604624
94 3 0.656222 0.234826 0.606452
76 1 0.860668 0.00793512 0.601755
67 1 0.866273 0.139009 0.348079
75 1 0.659114 0.00670811 0.928447
79 2 0.605782 0.131115 0.675642
81 3 0.657867 0.130778 0.813165
69 1 0.864997 0.131897 0.840683
87 3 0.951598 0.132135 0.672233
72 1 0.602014 0.385076 0.188616
73 1 0.856497 0.260525 0.106597
85 3 0.903766 0.382881 0.215539
65 1 0.608238 0.261136 0.429486
91 3 0.693348 0.390098 0.35077
82 3 0.891642 0.283093 0.426899
70 1 0.853994 0.253951 0.603031
77 2 0.849443 0.385362 0.35452
84 3 0.903785 0.490352 0.419616
74 1 0.661633 0.256073 0.929229
68 1 0.65428 0.382113 0.692019
93 3 0.575925 0.382014 0.861167
83 3 0.860224 0.278911 0.918084
90 3 0.864513 0.381881 0.709781
78 2 0.914656 0.381769 0.850184
88 3 0.860391 0.485105 0.917551
118 3 0.655223 0.532657 0.108625
112 2 0.600632 0.635653 0.176783
124 3 0.650651 0.63683 0.315357
127 3 0.652872 0.739356 0.108003
103 1 0.85732 0.505311 0.105747
1 3 0.944544 0.634249 0.171821
98 1 0.604501 0.512007 0.429
121 3 0.658349 0.530183 0.604456
126 3 0.65796 0.735852 0.60372
108 1 0.854534 0.508624 0.60187
99 1 0.853148 0.634869 0.342541
107 1 0.66101 0.508058 0.92906
111 2 0.605232 0.632979 0.673761
113 3 0.655471 0.632863 0.811832
101 1 0.861235 0.631006 0.839348
119 3 0.94947 0.632568 0.671505
104 1 0.604468 0.885637 0.18999
105 1 0.854268 0.760922 0.104909
117 3 0.902702 0.883847 0.212134
97 1 0.604627 0.759733 0.429026
123 3 0.697111 0.884873 0.354416
114 3 0.904708 0.780236 0.419053
102 1 0.858046 0.757163 0.600658
109 2 0.85292 0.884641 0.35218
116 3 0.906491 0.987692 0.419484
106 1 0.658479 0.757271 0.927006
100 1 0.660588 0.882814 0.68898
125 3 0.570133 0.881699 0.85075
115 3 0.860155 0.777642 0.917874
122 3 0.861752 0.881686 0.711328
110 2 0.913078 0.880658 0.850323
120 3 0.861994 0.983672 0.919157
