ITEM: TIMESTEP
2227
ITEM: NUMBER OF ATOMS
127
ITEM: BOX BOUNDS pp pp pp
0.0000000000000000e+00 1.0002500000000000e+01
0.0000000000000000e+00 1.2353714000000000e+01
0.0000000000000000e+00 1.0615024000000000e+01
ITEM: ATOMS id type xs ys zs
22 3 0.15205 0.0284821 0.106884
16 2 0.100625 0.13305 0.174569
28 3 0.151462 0.133319 0.312759
31 3 0.154241 0.235002 0.103648
7 1 0.353494 0.00718471 0.106336
32 3 0.444271 0.133058 0.174434
2 1 0.105123 0.00880447 0.428748
25 3 0.151804 0.0192156 0.606094
30 3 0.164412 0.220879 0.590656
12 1 0.35445 0.00850228 0.60161
3 1 0.352839 0.135011 0.345729
11 1 0.160017 0.00902617 0.926379
15 2 0.107294 0.127704 0.670445
17 3 0.160619 0.130688 0.80787
5 1 0.363022 0.134086 0.836869
23 3 0.450816 0.132764 0.668536
8 1 0.105057 0.383521 0.183455
9 1 0.3552 0.259786 0.102579
21 3 0.404274 0.383521 0.209084
27 3 0.19746 0.383521 0.348424
18 3 0.405587 0.280154 0.41693
6 1 0.351091 0.261986 0.604079
13 2 0.353271 0.383521 0.349127
20 3 0.405587 0.486888 0.41693
4 1 0.106245 0.259389 0.427628
10 1 0.162676 0.260872 0.917789
24 3 0.363634 0.486524 0.915202
29 3 0.0649798 0.383521 0.862734
19 3 0.363634 0.280518 0.915202
26 3 0.392002 0.383521 0.70723
14 2 0.421476 0.383521 0.850114
54 3 0.154241 0.53204 0.103648
48 2 0.100625 0.633992 0.174569
60 3 0.151462 0.633723 0.312759
63 3 0.15205 0.73856 0.106884
39 1 0.3552 0.507256 0.102579
64 3 0.444271 0.633984 0.174434
34 1 0.106245 0.507653 0.427628
57 3 0.164412 0.546163 0.590656
62 3 0.151804 0.747826 0.606094
44 1 0.351091 0.505056 0.604079
35 1 0.352839 0.63203 0.345729
43 1 0.162676 0.50617 0.917789
47 2 0.107294 0.639338 0.670445
49 3 0.160619 0.636354 0.80787
37 1 0.363022 0.632956 0.836869
55 3 0.450816 0.634278 0.668536
40 1 0.102722 0.883521 0.187727
41 1 0.353494 0.759857 0.106336
53 3 0.403435 0.883521 0.212098
33 1 0.105123 0.758237 0.428748
59 3 0.195844 0.883521 0.351065
50 3 0.403489 0.779905 0.419373
38 1 0.35445 0.75854 0.60161
45 2 0.351454 0.883521 0.35149
52 3 0.403489 0.987137 0.419373
42 1 0.160017 0.758016 0.926379
36 1 0.159574 0.883521 0.694945
61 3 0.0683864 0.883521 0.855482
51 3 0.362825 0.780284 0.91987
58 3 0.364498 0.883521 0.712924
46 2 0.414834 0.883521 0.852001
56 3 0.362825 0.986758 0.91987
86 3 0.652758 0.0294977 0.109429
80 2 0.599986 0.132849 0.178667
92 3 0.65045 0.132442 0.317099
95 3 0.653578 0.236052 0.110526
71 1 0.85377 0.00747112 0.105911
96 3 0.944698 0.133533 0.172734
66 1 0.603891 0.00893291 0.430131
89 3 0.659088 0.0292771 0.604248
94 3 0.660877 0.235081 0.603888
76 1 0.859641 0.00820523 0.601913
67 1 0.854983 0.133936 0.344915
75 1 0.658587 0.00893688 0.928039
79 2 0.60641 0.132822 0.673275
81 3 0.655592 0.132563 0.811861
69 1 0.861839 0.134708 0.839553
87 3 0.951045 0.132344 0.672057
72 1 0.604534 0.383521 0.187989
73 1 0.854776 0.260198 0.105671
85 3 0.903689 0.383521 0.212132
65 1 0.604769 0.258468 0.430297
91 3 0.697205 0.383521 0.353117
82 3 0.905371 0.279791 0.419288
70 1 0.862807 0.260327 0.604758
77 2 0.853002 0.383521 0.352026
84 3 0.905371 0.487251 0.419288
74 1 0.660602 0.256916 0.929756
68 1 0.654017 0.383521 0.693861
93 3 0.576797 0.383521 0.865223
83 3 0.857009 0.279559 0.921686
90 3 0.858091 0.383521 0.716539
78 2 0.911539 0.383521 0.855122
88 3 0.857009 0.487482 0.921686
118 3 0.653578 0.530989 0.110526
112 2 0.599986 0.634193 0.178667
124 3 0.65045 0.6346 0.317099
127 3 0.652758 0.737544 0.109429
103 1 0.854776 0.506844 0.105671
1 3 0.944698 0.633509 0.172734
98 1 0.604769 0.508574 0.430297
121 3 0.660877 0.53196 0.603888
126 3 0.659088 0.737765 0.604248
108 1 0.862807 0.506715 0.604758
99 1 0.854983 0.633106 0.344915
107 1 0.660602 0.510126 0.929756
111 2 0.60641 0.63422 0.673275
113 3 0.655592 0.634478 0.811861
101 1 0.861839 0.632334 0.839553
119 3 0.951045 0.634698 0.672057
104 1 0.604068 0.883521 0.189769
105 1 0.85377 0.759571 0.105911
117 3 0.901311 0.883521 0.211616
97 1 0.603891 0.758109 0.430131
123 3 0.695908 0.883521 0.354199
114 3 0.904591 0.779776 0.418526
102 1 0.859641 0.758837 0.601913
109 2 0.851652 0.883521 0.351728
116 3 0.904591 0.987266 0.418526
106 1 0.658587 0.758105 0.928039
100 1 0.660508 0.883521 0.690499
125 3 0.570683 0.883521 0.853154
115 3 0.860034 0.780244 0.920067
122 3 0.862573 0.883521 0.713413
110 2 0.91265 0.883521 0.852728
120 3 0.860034 0.986798 0.920067
