LAMMPS (12 Dec 2018)
Running on 8 partitions of processors
Step MaxReplicaForce MaxAtomForce GradV0 GradV1 GradVc EBF EBR RDT RD1 PE1 RD2 PE2 ... RDN PEN
0    20.924152    13.091935   0.17756064    5.1937686    21.027608    3.5488293    3.1827106    3.2618366            0   -796.99042   0.14285714   -796.56454   0.28571429   -795.20167   0.42857143   -793.53664   0.57142857    -793.4416   0.71428571   -795.01854   0.85714286   -796.29197            1   -796.62431 
1    20.924152    13.091935   0.17756064    5.1937686    21.027608    3.5488293    3.1827106    3.2618366            0   -796.99042   0.14285714   -796.56454   0.28571429   -795.20167   0.42857143   -793.53664   0.57142857    -793.4416   0.71428571   -795.01854   0.85714286   -796.29197            1   -796.62431 
2    18.338034    11.640537   0.17457041    4.9038189    18.434227    3.1474061    2.8052198    3.2619183            0   -796.99043   0.14285607   -796.57237   0.28572837    -795.3025   0.42861667   -793.91307    0.5714785   -793.84303   0.71436501   -795.14647   0.85724106   -796.31691            1   -796.64825 
3    13.723998    8.9995642   0.16914603      4.32505    13.808221    2.5058685    2.2096501    3.2642847            0   -796.99046   0.14274848   -796.58891    0.2855737   -795.49032   0.42873084   -794.51655   0.57153458   -794.48459     0.714698   -795.38102   0.85755374   -796.36646            1   -796.69424 
4    9.0305512    6.1481256   0.16292425    3.5047878    9.1030573    1.8873419     1.653273    3.2718812            0   -796.99051   0.14237027    -796.6159   0.28497937   -795.73151   0.42894608   -795.10531   0.57151354   -795.10317   0.71554239   -795.67374    0.8582635    -796.4384            1   -796.75644 
5    5.7486053    3.9502709   0.15844957    2.6389911    5.7408637    1.4468806    1.2789984     3.285733            0   -796.99064   0.14161275   -796.65388   0.28393104   -795.97191   0.42928213   -795.54376    0.5713392   -795.55671   0.71689123   -795.95464   0.85947789   -796.52461            1   -796.82276 
6    3.7076888    2.5408791    0.1559079    2.0042993    3.7206063    1.1533612    1.0455156    3.3050492            0   -796.99095   0.14047774   -796.69887   0.28272045   -796.16607   0.42966016   -795.83759   0.57109426   -795.85687   0.71843363    -796.1738   0.86112837   -796.61299            1   -796.88311 
7    2.5257263    1.6224401   0.15281816    1.5721399    2.5397848   0.96090837   0.90841429    3.3288759            0   -796.99152   0.13913627   -796.74329   0.28164238   -796.30414   0.43003765   -796.03062   0.57086573   -796.05339    0.7198677   -796.32924   0.86291972    -796.6958            1   -796.93903 
8    1.8168065    1.0542697    0.1485103    1.2496152    1.8298023   0.82929425   0.82627104     3.356089            0   -796.99233   0.13790644    -796.7806   0.28090252   -796.39825   0.43036838   -796.16303   0.57072193   -796.18877   0.72096775   -796.43881     0.864421   -796.76642            1    -796.9893 
9    1.3556201   0.68920795   0.14291735    1.0060315    1.3684077   0.73403454   0.77353557    3.3865597            0   -796.99336   0.13700971   -796.80875   0.28048249   -796.46215   0.43058756   -796.25932   0.57067235   -796.28777   0.72169043   -796.51873   0.86537724    -796.8236            1   -797.03286 
10    1.2046462   0.46147446    0.1363584   0.83620472    1.0793917   0.66283577   0.73862077    3.4197683            0   -796.99463    0.1365184   -796.82901   0.28026134   -796.50445   0.43060546    -796.3318   0.57068516   -796.36222   0.72199534    -796.5799   0.86571278   -796.87012            1   -797.07042 
11    2.3380266    1.2602334   0.13349163   0.94095494    1.1664485   0.62126254   0.71756332    3.4492809            0   -796.99572   0.13630505   -796.84076   0.27993016   -796.50234   0.43042659   -796.37446   0.57066593   -796.40399   0.72205483   -796.59623    0.8656553   -796.89838            1   -797.09202 
12    1.9104057    1.0212693   0.13165429   0.84344478    1.0509517   0.61796749   0.71638132     3.449464            0   -796.99579   0.13634424   -796.84136   0.27985326   -796.51481   0.43038412   -796.37782   0.57068698   -796.40838    0.7220818   -796.60802   0.86559928   -796.90046            1    -797.0942 
13    1.4227859    0.7275351   0.12997884   0.75010743   0.94493456   0.61409551    0.7149295    3.4503382            0   -796.99588   0.13637734   -796.84218   0.27977666   -796.52651   0.43033331   -796.38179   0.57070358   -796.41317    0.7220944   -796.61946      0.86554   -796.90303            1   -797.09672 
14    1.0381345   0.41149447   0.12863859   0.68127051   0.87115925   0.60955349   0.71309953    3.4523099            0   -796.99601   0.13639741   -796.84326   0.27971292   -796.53543   0.43027376   -796.38646   0.57071209   -796.41833   0.72207722   -796.62901   0.86548018   -796.90617            1   -797.09956 
15   0.84236549    0.3258586   0.12754161   0.64467717    0.8331031    0.6041782    0.7107541    3.4555694            0   -796.99618   0.13640425   -796.84467   0.27966901   -796.54098   0.43020321     -796.392   0.57071243    -796.4241   0.72201991   -796.63627   0.86541714   -796.90998            1   -797.10276 
16   0.79577882   0.32000605   0.12644198   0.62422311   0.80951216    0.5981522   0.70797503     3.459728            0   -796.99638   0.13640681   -796.84631   0.27963582   -796.54484   0.43012069   -796.39823   0.57070823   -796.43048   0.72193215   -796.64253   0.86534557   -796.91425            1    -797.1062 
17   0.77475363   0.31383469   0.12522313    0.6054808    0.7863856   0.59166156   0.70490456    3.4644569            0    -796.9966   0.13641208   -796.84808    0.2796012   -796.54858   0.43002525   -796.40494   0.57070134   -796.43736   0.72182484   -796.64895   0.86526156   -796.91884            1   -797.10985 
18   0.75354247   0.30710158   0.12387158   0.58569656   0.76192967   0.58476003   0.70160198    3.4697129            0   -796.99685   0.13642197   -796.84997    0.2795626   -796.55254    0.4299157   -796.41209   0.57069131   -796.44469   0.72169777    -796.6558    0.8651631    -796.9237            1   -797.11369 
19   0.73112095    0.2997108   0.12238718   0.56484089   0.73631674   0.57750906   0.69809938    3.4754961            0   -796.99712   0.13643736   -796.85197   0.27951999   -796.55671   0.42979105   -796.41961   0.57067739   -796.45242   0.72154878   -796.66305   0.86504888   -796.92882            1   -797.11771 
20   0.70763781   0.29162244   0.12077038   0.54310542   0.70980195   0.56997589   0.69442421    3.4818063            0   -796.99741   0.13645911   -796.85405   0.27947353   -796.56105   0.42965038   -796.42744   0.57065882   -796.46048   0.72137584   -796.67066   0.86491785   -796.93413            1   -797.12186 
21   0.68324807   0.28282401   0.11902207   0.52069239   0.68263404   0.56222853   0.69060216    3.4886414            0   -796.99773   0.13648805   -796.85621   0.27942357   -796.56552   0.42949292    -796.4355   0.57063482   -796.46881   0.72117718   -796.67857   0.86476916    -796.9396            1    -797.1261 
22   0.65809572   0.27331404   0.11714355   0.49780195   0.65504657   0.55431493    0.6866404    3.4959978            0   -796.99807   0.13652494   -796.85844   0.27937059   -796.57011   0.42931795   -796.44375   0.57060458   -796.47736    0.7209514    -796.6867   0.86460218   -796.94516            1   -797.13039 
23   0.63231454   0.26309822   0.11513663   0.47462762   0.62725127   0.54630202   0.68256557    3.5038701            0   -796.99843   0.13657052   -796.86074   0.27931527   -796.57477   0.42912502   -796.45212   0.57056725   -796.48607   0.72069751   -796.69498   0.86441653   -796.95078            1   -797.13469 
24   0.60601913   0.25219336    0.1130037   0.45135406   0.59943497   0.53825715   0.67840285     3.512251            0   -796.99881   0.13662542   -796.86309   0.27925853   -796.57952   0.42891384   -796.46055   0.57052191   -796.49489   0.72041511   -796.70337   0.86421213    -796.9564            1   -797.13895 
25   0.57931589   0.24063504   0.11074777   0.42815248    0.5717608   0.53024426   0.67417962    3.5211317            0   -796.99921   0.13669024   -796.86548   0.27920157    -796.5843   0.42868442   -796.46896   0.57046764   -796.50373   0.72010448   -796.71182   0.86398917   -796.96199            1   -797.14314 
26   0.55229971   0.22846374   0.10837236   0.40517765   0.54435964   0.52229845   0.66991113    3.5305013            0   -796.99963   0.13676549   -796.86791   0.27914586   -796.58906   0.42843711   -796.47733   0.57040345   -796.51258   0.71976663   -796.72026   0.86374811    -796.9675            1   -797.14724 
27    0.5250662   0.21574028   0.10588174   0.38256679   0.51733995   0.51449786   0.66566263    3.5403476            0   -797.00007   0.13685162   -796.87036   0.27909318    -796.5938   0.42817257   -796.48557   0.57032833   -796.52136    0.7194034   -796.72863   0.86348962   -796.97287            1   -797.15124 
28   0.49770232   0.20252321   0.10328073   0.36043815   0.49078528   0.50684857   0.66146757    3.5506565            0   -797.00053   0.13694904   -796.87282   0.27904559    -796.5985   0.42789178   -796.49368   0.57024124   -796.53005   0.71901747   -796.73693    0.8632146   -796.97809            1   -797.15515 
29   0.47031058   0.18891435   0.10057482   0.33889185   0.46476116   0.49940457   0.65734661    3.5614126            0     -797.001   0.13705811   -796.87529   0.27900545   -796.60315   0.42759623   -796.50159   0.57014112   -796.53861   0.71861236   -796.74505     0.862924   -796.98314            1   -797.15894 
30   0.44573037   0.17499227  0.097770115   0.31799833   0.43932607   0.49220182    0.6532791    3.5725986            0   -797.00148   0.13717914   -796.87776   0.27897541   -796.60772   0.42728777   -796.50928   0.57002698   -796.54711   0.71819233    -796.7529   0.86261886     -796.988            1   -797.16256 
31   0.42263229   0.16086502  0.094873391   0.29781271   0.41452429    0.4852628    0.6492762    3.5841959            0   -797.00198   0.13731244   -796.88022    0.2789583   -796.61222   0.42696829   -796.51671   0.56989799   -796.55543   0.71776236   -796.76044   0.86230023   -796.99263            1   -797.16599 
32    0.3999594   0.14742479  0.091892149   0.27837117   0.39039684   0.47861685   0.64535237    3.5961835            0   -797.00249   0.13745834   -796.88268   0.27895719   -796.61664   0.42664064   -796.52387   0.56975347   -796.56349   0.71732793   -796.76763   0.86196911   -796.99704            1   -797.16922 
33   0.37768566   0.14054956  0.088834458   0.25969447   0.36698251   0.47228383   0.64153121    3.6085383            0   -797.00301   0.13761719   -796.88513   0.27897534   -796.62096   0.42630851   -796.53073   0.56959305   -796.57124   0.71689481   -796.77441   0.86162649   -797.00126            1   -797.17226 
34    0.3558082   0.13325164  0.085709234   0.24179021   0.34432548   0.46619013   0.63772613     3.621234            0   -797.00355   0.13778943   -796.88755   0.27901613   -796.62519   0.42597626   -796.53736   0.56941679   -796.57865   0.71646879   -796.78073   0.86127337   -797.00521            1   -797.17508 
35   0.33437181   0.12562465  0.082529392   0.22471745   0.32254885   0.46045153   0.63402846    3.6342412            0   -797.00409    0.1379755      -796.89   0.27908297   -796.62928    0.4256491   -796.54364   0.56922544   -796.58572    0.7160556   -796.78663   0.86091097   -797.00885            1   -797.17767 
36    0.3142057   0.11757248   0.07937206   0.20974149   0.30342571   0.45518484   0.63058624    3.6475207            0   -797.00463    0.1381758   -796.89242   0.27917927   -796.63331   0.42533242   -796.54945   0.56902038   -796.59251   0.71566006   -796.79214   0.86054092   -797.01214            1   -797.18004 
37    0.3179098   0.10994335  0.077745652   0.22409265   0.32509826   0.45038263   0.62729941    3.6608671            0   -797.00519   0.13838674   -796.89474   0.27930506   -796.63682   0.42503603    -796.5548    0.5688074   -796.59871   0.71529396   -796.79691   0.86017112   -797.01508            1    -797.1821 
38   0.65557506   0.19066686  0.092027958   0.43181398   0.62735191   0.44862212   0.62589385    3.6709145            0   -797.00554   0.13854074   -796.89586   0.27941585   -796.63921   0.42483177   -796.55692   0.56863426   -796.60257   0.71504393   -796.79897   0.85990149    -797.0165            1   -797.18281 
39   0.65557506   0.19066686  0.092027958   0.43181398   0.62735191   0.44862212   0.62589385    3.6709145            0   -797.00554   0.13854074   -796.89586   0.27941585   -796.63921   0.42483177   -796.55692   0.56863426   -796.60257   0.71504393   -796.79897   0.85990149    -797.0165            1   -797.18281 
40   0.62787421   0.18138321  0.090414355   0.41443845   0.60191713   0.44843061   0.62578314    3.6709916            0   -797.00555   0.13854255   -796.89594   0.27941698   -796.63932   0.42482995   -796.55712   0.56863336   -796.60268   0.71504296   -796.79917   0.85989894   -797.01658            1    -797.1829 
41   0.57358809   0.16293439  0.087367347   0.38044106   0.55222117   0.44807039   0.62557336    3.6711589            0   -797.00556   0.13854629   -796.89609   0.27941936   -796.63953   0.42482612   -796.55749    0.5686313    -796.6029   0.71504065   -796.79955   0.85989357   -797.01673            1   -797.18307 
42   0.49685326    0.1371475  0.083346464   0.33255449   0.48243798   0.44758864   0.62528766    3.6714458            0   -797.00558   0.13855222   -796.89628   0.27942332   -796.63981   0.42481982     -796.558   0.56862743    -796.6032   0.71503605   -796.80004   0.85988475   -797.01693            1   -797.18328 
43   0.40679578   0.10571716  0.079111879   0.27677601   0.40163307   0.44705291   0.62496118    3.6719028            0   -797.00561   0.13856093   -796.89651   0.27942946   -796.64011   0.42481025   -796.55856   0.56862073   -796.60356   0.71502759   -796.80057   0.85987131   -797.01717            1   -797.18352 
44   0.32121612   0.10204724  0.075624145   0.22452874   0.32680343   0.44652483    0.6246235    3.6726017            0   -797.00565   0.13857338   -796.89675   0.27943877    -796.6404    0.4247962   -796.55913   0.56860978   -796.60398   0.71501303   -796.80108   0.85985148   -797.01742            1   -797.18375 
45   0.28185353   0.10163523  0.073584005   0.19103494   0.27985916   0.44603114   0.62428619    3.6736107            0    -797.0057   0.13859065   -796.89699   0.27945231   -796.64069   0.42477654   -796.55967   0.56859331   -796.60447    0.7149903   -796.80153   0.85982347   -797.01769            1   -797.18395 
46   0.27319953   0.10097447  0.072741072   0.17916919   0.26383732   0.44554778   0.62393952    3.6749127            0   -797.00576   0.13861267   -796.89724   0.27947015   -796.64101   0.42475165   -796.56021   0.56857162   -796.60503   0.71495979   -796.80197   0.85978761   -797.01796            1   -797.18415 
47   0.27005856   0.10011206    0.0722974   0.17601356   0.25977296   0.44503794   0.62356885    3.6764264            0   -797.00582   0.13863835    -796.8975   0.27949138    -796.6414   0.42472314   -796.56078   0.56854622   -796.60567   0.71492399   -796.80245   0.85974601   -797.01825            1   -797.18435 
48   0.26755449   0.09910314  0.071880421   0.17412419   0.25734724   0.44448694   0.62316749     3.678116            0   -797.00589   0.13866723   -796.89779    0.2795156   -796.64185   0.42469179    -796.5614   0.56851785   -796.60638   0.71488422   -796.80299   0.85969967   -797.01856            1   -797.18457 
49   0.26488181  0.097977681  0.071427897   0.17218426   0.25484321    0.4438931   0.62273417    3.6799753            0   -797.00597   0.13869926   -796.89811   0.27954285   -796.64235   0.42465789   -796.56207   0.56848666   -796.60716   0.71484088   -796.80356   0.85964881   -797.01891            1   -797.18481 
50   0.26198626  0.096748855  0.070935553   0.17009142   0.25214115   0.44325654   0.62226715    3.6820028            0   -797.00605   0.13873447   -796.89845   0.27957327   -796.64288   0.42462167   -796.56279   0.56845275     -796.608   0.71479419   -796.80418   0.85959352   -797.01927            1   -797.18506 
51   0.25887223    0.0954218  0.070403821   0.16784718   0.24924419   0.44257888   0.62176718    3.6841969            0   -797.00614   0.13877293   -796.89883   0.27960702   -796.64346   0.42458337   -796.56356   0.56841619   -796.60889   0.71474434   -796.80483   0.85953391   -797.01967            1   -797.18533 
52   0.25554645  0.093999104  0.069833341   0.16545764   0.24616088   0.44186167   0.62123474    3.6865558            0   -797.00624   0.13881466   -796.89922   0.27964426   -796.64408   0.42454324   -796.56438   0.56837705   -796.60984   0.71469151   -796.80552   0.85947007   -797.02008            1   -797.18561 
53   0.25201719  0.092483037  0.069224808   0.16292932    0.2429002    0.4411075   0.62067108    3.6890776            0   -797.00634   0.13885974   -796.89964   0.27968519   -796.64473   0.42450157   -796.56523   0.56833542   -796.61086   0.71463591   -796.80624   0.85940212   -797.02051            1    -797.1859 
54   0.24829123  0.090876168   0.06857897   0.16026904   0.23947143    0.4403192   0.62007736    3.6917603            0   -797.00645    0.1389082   -796.90009      0.27973   -796.64542   0.42445866   -796.56613   0.56829143   -796.61193   0.71457775   -796.80698   0.85933018   -797.02096            1   -797.18621 
55   0.24437658   0.08918133  0.067896631   0.15748387    0.2358843   0.43949971    0.6194553    3.6946015            0   -797.00656    0.1389601   -796.90056   0.27977889   -796.64614   0.42441484   -796.56706    0.5682452   -796.61304   0.71451723   -796.80776   0.85925441   -797.02143            1   -797.18652 
56   0.24028148  0.087401636  0.067178649   0.15458112   0.23214879   0.43865258   0.61880867    3.6975987            0   -797.00669   0.13901549   -796.90105   0.27983207   -796.64689   0.42437046   -796.56803   0.56819687   -796.61419   0.71445457   -796.80855   0.85917495   -797.02192            1   -797.18684 
57   0.23601465  0.085540491  0.066425937    0.1515676    0.2282757   0.43778541   0.61812244    3.7007491            0   -797.00681   0.13907443   -796.90156   0.27988976   -796.64767   0.42432593   -796.56903   0.56814663   -796.61538   0.71438999   -796.80936   0.85909196   -797.02241            1   -797.18715 
58    0.2315858  0.083601606  0.065639466   0.14845157    0.2242758   0.43687868   0.61739475      3.70405            0   -797.00694   0.13913695    -796.9021   0.27995217   -796.64848   0.42428163   -796.57007   0.56809466    -796.6166   0.71432369   -796.81019   0.85900563   -797.02292            1   -797.18746 
59   0.22700449  0.081588996  0.064820214   0.14524082   0.22015928   0.43594911   0.61664014     3.707498            0   -797.00708   0.13920312   -796.90265   0.28001953    -796.6493   0.42423801   -796.57113   0.56804118   -796.61786    0.7142559   -796.81103   0.85891615   -797.02344            1   -797.18777 
60   0.22228056  0.079506967  0.063969242   0.14194327   0.21593732   0.43500199   0.61585731    3.7110899            0   -797.00722   0.13927296   -796.90323   0.28009206   -796.65016   0.42419554   -796.57222   0.56798644   -796.61914    0.7141868   -796.81188   0.85882374   -797.02396            1   -797.18808 
61   0.21742416   0.07736014   0.06308763   0.13856683   0.21162151   0.43405039   0.61505218    3.7148221            0   -797.00736   0.13934652   -796.90382   0.28016997   -796.65104   0.42415468   -796.57331   0.56793072   -796.62045    0.7141166   -796.81273   0.85872861    -797.0245            1   -797.18837 
62   0.21244575  0.075321469  0.062176461   0.13511927   0.20722259   0.43309795   0.61423725    3.7186908            0   -797.00751   0.13942383   -796.90443   0.28025348   -796.65194   0.42411595   -796.57442   0.56787432   -796.62177   0.71404548   -796.81359   0.85863101   -797.02503            1   -797.18865 
63   0.20735597  0.074186617  0.061236935   0.13160868    0.2027516   0.43214328      0.61341     3.722692            0   -797.00767   0.13950489   -796.90505   0.28034279   -796.65286   0.42407988   -796.57552   0.56781757   -796.62311    0.7139736   -796.81445   0.85853119   -797.02557            1   -797.18893 
64   0.20216554  0.073008217  0.060270139   0.12804285   0.19821959   0.43119003   0.61257269    3.7268216            0   -797.00782   0.13958974   -796.90569   0.28043809    -796.6538   0.42404701   -796.57663   0.56776085   -796.62447   0.71390112   -796.81529   0.85842941   -797.02611            1   -797.18921 
65   0.19688541  0.071786696  0.059277449   0.12442879    0.1936376   0.43023615   0.61172229    3.7310751            0   -797.00798   0.13967837   -796.90634   0.28053956   -796.65475    0.4240179   -796.57775   0.56770455   -796.62583   0.71382818   -796.81614   0.85832597   -797.02664            1   -797.18947 
66   0.19152666  0.070522019  0.058260108    0.1207738   0.18901642   0.42928382   0.61086124    3.7354479            0   -797.00815   0.13977077   -796.90701   0.28064736   -796.65572   0.42399313   -796.57887   0.56764911    -796.6272    0.7137549   -796.81698   0.85822113   -797.02717            1   -797.18973 
67   0.18610061   0.06921496  0.057219324    0.1170865   0.18436665   0.42833543   0.60998594    3.7399353            0   -797.00832   0.13986691   -796.90768   0.28076164    -796.6567    0.4239733   -796.57998   0.56759499   -796.62856   0.71368138   -796.81782   0.85811521   -797.02769            1   -797.18997 
68   0.18061787  0.067864925  0.056156285   0.11337455   0.17969867   0.42739301   0.60910415    3.7445323            0   -797.00849   0.13996676   -796.90836    0.2808825    -796.6577   0.42395901   -796.58109   0.56754268   -796.62993   0.71360771   -796.81863   0.85800851    -797.0282            1    -797.1902 
69   0.17508736  0.066474145  0.055072405   0.10964526   0.17502242    0.4264582   0.60821621    3.7492337            0   -797.00866   0.14007026   -796.90905   0.28101004   -796.65871   0.42395087    -796.5822    0.5674927   -796.63131   0.71353397   -796.81942   0.85790134   -797.02871            1   -797.19042 
70   0.16952219   0.06503881  0.053968902    0.1059062   0.17034954   0.42551177   0.60730068    3.7540342            0   -797.00884   0.14017732   -796.90975   0.28114431   -796.65973   0.42394947   -796.58332   0.56744563   -796.63268   0.71346023   -796.82019   0.85779401   -797.02921            1   -797.19062 
71    0.1639333  0.063569406  0.052847056   0.10216688   0.16568787   0.42457986   0.60638328    3.7589282            0   -797.00901   0.14028786   -796.91046   0.28128533   -796.66073   0.42395543   -796.58443   0.56740202   -796.63403   0.71338654   -796.82094   0.85768683   -797.02971            1   -797.19082 
72   0.15833233  0.062040263  0.051708831  0.098463682   0.16105162   0.42366055   0.60545851      3.76391            0   -797.00919   0.14040175   -796.91117   0.28143309   -796.66175   0.42396935   -796.58553   0.56736252   -796.63537   0.71331299   -796.82166   0.85758012    -797.0302            1   -797.19099 
73   0.15273442  0.060526711  0.050563969  0.095139923   0.15649873   0.42276074     0.604549    3.7689725            0   -797.00937   0.14051882   -796.91188   0.28158751   -796.66276   0.42399175   -796.58661   0.56732763   -796.63668   0.71323954   -796.82236   0.85747413   -797.03066            1   -797.19116 
74   0.14721058  0.058804665  0.049525699   0.09646692   0.15273536     0.421866    0.6035855    3.7740976            0   -797.00955   0.14063857   -796.91259   0.28174794   -796.66379   0.42402326   -796.58769    0.5672984   -796.63797   0.71316675   -796.82303   0.85736969   -797.03112            1   -797.19127 
75   0.16720527  0.057659569  0.050034768   0.14385287   0.15855197   0.42108634   0.60278563    3.7791195            0   -797.00972   0.14075657    -796.9133   0.28190892    -796.6647   0.42406208   -796.58864   0.56727443    -796.6392   0.71309525   -796.82366    0.8572696   -797.03143            1   -797.19142 
76   0.28609197   0.12699385   0.05527902   0.25835302   0.19146273   0.42050355   0.60171967    3.7824483            0   -797.00984   0.14083337   -796.91372    0.2820143   -796.66533   0.42409298   -796.58934   0.56726338   -796.63998   0.71304921   -796.82395   0.85720973   -797.03154            1   -797.19106 
77    0.2363474   0.10119494  0.052479215   0.21121864   0.17528867   0.42045583   0.60180864     3.782647            0   -797.00985    0.1408387   -796.91375   0.28202177    -796.6654   0.42409571    -796.5894   0.56726353   -796.64003   0.71304749   -796.82402   0.85720685   -797.03168            1    -797.1912 
78   0.18272035  0.071366787  0.049889299   0.15924902   0.15988388   0.42039849   0.60187601    3.7829445            0   -797.00986   0.14084626   -796.91381   0.28203243   -796.66549   0.42409939   -796.58946   0.56726329   -796.64011   0.71304424   -796.82409   0.85720196    -797.0318            1   -797.19134 
79   0.13872757  0.055751642  0.048121805   0.11462116   0.14918417   0.42032968   0.60189427      3.78337            0   -797.00988   0.14085662   -796.91387   0.28204713   -796.66559   0.42410425   -796.58955   0.56726248   -796.64022   0.71303885   -796.82417   0.85719431    -797.0319            1   -797.19144 
80   0.13675782  0.055691708  0.047311518  0.090801046   0.14443236   0.42024472   0.60185024    3.7839327            0    -797.0099   0.14087001   -796.91396   0.28206616    -796.6657   0.42411047   -796.58965    0.5672612   -796.64035   0.71303127   -796.82425   0.85718372   -797.03196            1    -797.1915 
81   0.13598145  0.055541921  0.047007036   0.08438359   0.14292818   0.42014112   0.60175602    3.7846075            0   -797.00992   0.14088596   -796.91405   0.28208884   -796.66582   0.42411797   -796.58978   0.56725971   -796.64052   0.71302206   -796.82433   0.85717088   -797.03201            1   -797.19153 
82   0.13517262  0.055323243  0.046813843  0.083129329   0.14217519   0.42002053   0.60163056     3.785373            0   -797.00994   0.14090404   -796.91416   0.28211457   -796.66597   0.42412667   -796.58992   0.56725821    -796.6407   0.71301167   -796.82442   0.85715637   -797.03207            1   -797.19155 
83   0.13428483  0.055057855  0.046617825  0.082501066   0.14145514   0.41988543   0.60148441     3.786223            0   -797.00997   0.14092416   -796.91428   0.28214322   -796.66613   0.42413658   -796.59009   0.56725676    -796.6409    0.7130002   -796.82452   0.85714035   -797.03214            1   -797.19157 
84   0.13331335  0.054758401  0.046403789  0.081860955   0.14067465   0.41973738   0.60132209    3.7871565            0   -797.01001   0.14094629   -796.91441   0.28217478   -796.66631   0.42414775   -796.59027   0.56725539   -796.64112   0.71298766   -796.82463   0.85712284   -797.03222            1   -797.19159 
85   0.13225936  0.054430024  0.046170906  0.081168002   0.13982901   0.41957718    0.6011454    3.7881727            0   -797.01004   0.14097042   -796.91455   0.28220927   -796.66651   0.42416025   -796.59046   0.56725417   -796.64136   0.71297407   -796.82474   0.85710388    -797.0323            1   -797.19161 
86   0.13112456  0.054074214  0.045919339  0.080422264   0.13891963   0.41940529   0.60095501    3.7892707            0   -797.01008   0.14099654    -796.9147   0.28224668   -796.66672   0.42417416   -796.59067   0.56725316   -796.64161   0.71295944   -796.82487   0.85708351   -797.03239            1   -797.19163 
87   0.12991074  0.053691316  0.045649289  0.079624995   0.13794817   0.41922212   0.60075129    3.7904497            0   -797.01012   0.14102464   -796.91486   0.28228702   -796.66694   0.42418956    -796.5909   0.56725243   -796.64188   0.71294382     -796.825   0.85706177   -797.03248            1   -797.19165 
88   0.12861984  0.053281469  0.045360973   0.07877754    0.1369164   0.41903124   0.60053771    3.7917088            0   -797.01016   0.14105471   -796.91504    0.2823303   -796.66718   0.42420654   -796.59113   0.56725209   -796.64217   0.71292722   -796.82513   0.85703872   -797.03258            1   -797.19167 
89   0.12725391   0.05284481  0.045054619  0.077881299   0.13582627   0.41883021   0.60031209    3.7930469            0   -797.01021   0.14108672   -796.91522   0.28237651   -796.66744   0.42422519   -796.59138    0.5672522   -796.64248   0.71290968   -796.82528   0.85701439   -797.03268            1   -797.19169 
90   0.12581512   0.05238149  0.044730458  0.076937775   0.13467975   0.41861917   0.60007461     3.794463            0   -797.01026   0.14112067   -796.91542   0.28242565   -796.66771   0.42424561   -796.59164   0.56725287    -796.6428   0.71289123   -796.82543   0.85698885   -797.03279            1   -797.19171 
91    0.1243057  0.051891677  0.044388647  0.075948551   0.13347895   0.41839585   0.59982543    3.7959558            0    -797.0103   0.14115653   -796.91563   0.28247772   -796.66799   0.42426791   -796.59191    0.5672542   -796.64313   0.71287192   -796.82559   0.85696215    -797.0329            1   -797.19173 
92   0.12272802  0.051375551  0.044029543  0.074915253   0.13222601   0.41816363   0.59956495    3.7975243            0   -797.01035   0.14119428   -796.91584    0.2825327   -796.66828   0.42429219   -796.59219   0.56725629   -796.64348   0.71285177   -796.82575   0.85693434   -797.03302            1   -797.19175 
93   0.12108454  0.050833311  0.043653415  0.073839567   0.13092316   0.41792319   0.59929372     3.799167            0    -797.0104   0.14123388   -796.91607   0.28259059   -796.66859   0.42431855   -796.59248   0.56725925   -796.64384   0.71283083   -796.82592   0.85690549   -797.03314            1   -797.19177 
94    0.1193778     0.050263  0.043260537  0.072723232   0.12957194   0.41768383   0.59902106    3.8008827            0   -797.01046   0.14127532    -796.9163   0.28265138   -796.66891   0.42434711   -796.59277    0.5672632   -796.64422   0.71280915   -796.82609   0.85687565   -797.03327            1   -797.19179 
95   0.11761038  0.049666884  0.042851191  0.071568031   0.12817543   0.41743776   0.59873898    3.8026698            0   -797.01051   0.14131855   -796.91652   0.28271504   -796.66925   0.42437797   -796.59307   0.56726826    -796.6446   0.71278677   -796.82627    0.8568449    -797.0334            1   -797.19181 
96   0.11578496  0.049045351  0.042425673  0.070375789   0.12673606   0.41718532   0.59844772    3.8045268            0   -797.01057   0.14136353   -796.91675   0.28278155   -796.66959   0.42441126   -796.59338   0.56727456     -796.645   0.71276374   -796.82645    0.8568133   -797.03353            1   -797.19183 
97   0.11390427   0.04839868  0.041984314  0.069148367    0.1252563   0.41692708   0.59814773    3.8064522            0   -797.01063   0.14141023   -796.91699   0.28285087   -796.66995   0.42444707    -796.5937   0.56728222   -796.64541   0.71274013   -796.82662   0.85678091   -797.03367            1   -797.19185 
98   0.11197107  0.047727175  0.041527363  0.067887654   0.12373865   0.41666357   0.59783931    3.8084444            0   -797.01069   0.14145859   -796.91724   0.28292298   -796.67031   0.42448553   -796.59403   0.56729137   -796.64583   0.71271598    -796.8268   0.85674781   -797.03381            1   -797.19187 
99   0.10998824  0.047031304  0.041055128  0.066595708   0.12218564   0.41639538    0.5975235    3.8105015            0   -797.01075   0.14150857   -796.91749   0.28299782   -796.67069   0.42452674   -796.59436   0.56730215   -796.64626   0.71269135   -796.82698   0.85671407   -797.03395            1   -797.19188 
100   0.10795883  0.046311474  0.040567885  0.065274329   0.12059985   0.41612294   0.59720046    3.8126219            0   -797.01082    0.1415601   -796.91776   0.28307535   -796.67107    0.4245708   -796.59469   0.56731469    -796.6467   0.71266632   -796.82717   0.85667976    -797.0341            1   -797.19189 
101   0.10603371  0.045567801  0.040065927  0.063925389   0.11898383   0.41584676   0.59687057    3.8148037            0   -797.01088   0.14161312   -796.91802   0.28315551   -796.67147   0.42461781   -796.59504   0.56732913   -796.64714   0.71264095   -796.82735   0.85664496   -797.03425            1   -797.19191 
102   0.10428819  0.044800717   0.03954953   0.06255089   0.11734015   0.41556599   0.59653309     3.817045            0   -797.01095   0.14166757    -796.9183   0.28323824   -796.67187   0.42466789   -796.59538   0.56734562   -796.64759   0.71261532   -796.82754   0.85660973   -797.03441            1   -797.19192 
103   0.10249873  0.044010567  0.039018974  0.061152858   0.11567146   0.41528263   0.59619393    3.8193439            0   -797.01102   0.14172338   -796.91858   0.28332346   -796.67228   0.42472111   -796.59573   0.56736429   -796.64805   0.71258951   -796.82773   0.85657417   -797.03456            1   -797.19193 
104    0.1006667   0.04319795  0.038474531  0.059733201    0.1139804   0.41499715   0.59584892    3.8216983            0   -797.01109   0.14178046   -796.91886   0.28341108    -796.6727   0.42477758   -796.59609   0.56738528   -796.64852   0.71256361   -796.82792   0.85653834   -797.03472            1   -797.19194 
105  0.098793527  0.042363012  0.037916466  0.058293868   0.11226956   0.41471019   0.59549807    3.8241063            0   -797.01116   0.14183874   -796.91915   0.28350102   -796.67313   0.42483736   -796.59645   0.56740874   -796.64898   0.71253771    -796.8281   0.85650233   -797.03488            1   -797.19194 
106  0.096881493  0.041507021  0.037345035  0.056836792   0.11054167   0.41442201   0.59514293    3.8265657            0   -797.01123   0.14189811   -796.91944   0.28359317   -796.67358   0.42490052    -796.5968   0.56743479   -796.64946   0.71251191   -796.82829   0.85646621   -797.03505            1   -797.19195 
107  0.094931734  0.040628671  0.036760503  0.055363899    0.1087997   0.41413373   0.59478477    3.8290743            0    -797.0113    0.1419585   -796.91976   0.28368743   -796.67403   0.42496713   -796.59716   0.56746358   -796.64993   0.71248632   -796.82848   0.85643009   -797.03521            1   -797.19195 
108  0.092946211  0.039733606  0.036163273  0.053877147   0.10705053   0.41384429   0.59442238    3.8316299            0   -797.01137   0.14201978   -796.92008   0.28378365   -796.67449   0.42503721   -796.59753   0.56749522   -796.65041   0.71246103   -796.82866   0.85639402   -797.03538            1   -797.19195 
109  0.090936141  0.038808203  0.035555216  0.052378925   0.10533335   0.41356104   0.59406083    3.8342301            0   -797.01145   0.14208189   -796.92041   0.28388172   -796.67496   0.42511084   -796.59789   0.56752988   -796.65089   0.71243621   -796.82885   0.85635813   -797.03555            1   -797.19195 
110  0.089009799  0.037897569  0.034953122  0.050875688   0.10405327   0.41327213   0.59369005    3.8368683            0   -797.01152   0.14214445   -796.92072   0.28398126   -796.67544   0.42518781   -796.59825   0.56756748   -796.65138   0.71241192   -796.82903   0.85632249   -797.03572            1   -797.19194 
111  0.096549535  0.036876614  0.034540296  0.049417442   0.10760229   0.41301652   0.59335475    3.8395125            0    -797.0116   0.14220709   -796.92109   0.28408117   -796.67591   0.42526758   -796.59858   0.56760818   -796.65186   0.71238895   -796.82922   0.85628784   -797.03589            1   -797.19194 
112   0.18593238  0.051147645  0.035595841  0.048396036   0.14151672   0.41277398   0.59303426     3.841805            0   -797.01166    0.1422595   -796.92109   0.28416769   -796.67634   0.42533849   -796.59889   0.56764545   -796.65226    0.7123698   -796.82936   0.85625847   -797.03605            1   -797.19192 
113  0.085338975  0.035814891  0.033694531  0.047703659   0.10293242   0.41269575   0.59293816    3.8425273            0   -797.01168   0.14227533   -796.92146   0.28419451   -796.67646   0.42536126   -796.59899   0.56765797   -796.65239   0.71236403   -796.82942   0.85624949   -797.03609            1   -797.19193 
114  0.084040481  0.035663011   0.03345922  0.047390257  0.099461892   0.41263058   0.59285519    3.8430616            0    -797.0117    0.1422874   -796.92151   0.28421449   -796.67656   0.42537818   -796.59907   0.56766714   -796.65249   0.71235972   -796.82945   0.85624281   -797.03613            1   -797.19192 
115  0.083577478   0.03545466  0.033317595  0.047064148  0.099070448   0.41257039   0.59277623    3.8436473            0   -797.01172   0.14230084   -796.92158   0.28423644   -796.67667   0.42539693   -796.59915   0.56767744   -796.65259   0.71235517   -796.82949   0.85623561   -797.03616            1   -797.19192 
116  0.083080389  0.035226265  0.033164957  0.046712507  0.098661871   0.41250618   0.59269175    3.8442806            0   -797.01173   0.14231536   -796.92166   0.28426015   -796.67678   0.42541732   -796.59923   0.56768873    -796.6527   0.71235033   -796.82953   0.85622788   -797.03621            1   -797.19192 
117   0.08254634  0.034980738  0.033000786  0.046335657  0.098224453   0.41243758    0.5926013    3.8449609            0   -797.01175   0.14233092   -796.92175   0.28428562    -796.6769   0.42543935   -796.59931   0.56770102   -796.65282   0.71234521   -796.82958   0.85621963   -797.03625            1   -797.19192 
118  0.081975675  0.034718128  0.032825147  0.045934052  0.097758802   0.41236471   0.59250502    3.8456877            0   -797.01177   0.14234752   -796.92184   0.28431281   -796.67703   0.42546305   -796.59941   0.56771434   -796.65295   0.71233984   -796.82962   0.85621088    -797.0363            1   -797.19191 
119  0.081368775  0.034438592   0.03263811  0.045508178   0.09726559   0.41228771   0.59240303    3.8464606            0   -797.01179   0.14236513   -796.92193   0.28434169   -796.67717   0.42548841   -796.59951   0.56772871   -796.65308   0.71233424   -796.82968   0.85620166   -797.03635            1   -797.19191 
120  0.080726044  0.034142273  0.032439749  0.045058546  0.096745503   0.41220686   0.59229564     3.847279            0   -797.01182   0.14238372   -796.92202   0.28437224   -796.67732   0.42551545   -796.59961   0.56774417   -796.65322   0.71232844   -796.82973   0.85619198    -797.0364            1   -797.19191 
121  0.080047906  0.033829336  0.032230141  0.044585693  0.096199298   0.41212227   0.59218271    3.8481422            0   -797.01184   0.14240327   -796.92212   0.28440443   -796.67747   0.42554418   -796.59972   0.56776074   -796.65336   0.71232247   -796.82978   0.85618187   -797.03646            1    -797.1919 
122  0.079334817   0.03349995  0.032009366  0.044090181  0.095627759   0.41203411   0.59206418    3.8490498            0   -797.01187   0.14242376   -796.92223   0.28443822   -796.67763   0.42557461   -796.59983   0.56777846   -796.65352   0.71231635   -796.82984   0.85617135   -797.03652            1    -797.1919 
123   0.07858724  0.033154301  0.031777506  0.043572599  0.095031715   0.41194244   0.59194056    3.8500009            0   -797.01189   0.14244516   -796.92234   0.28447357    -796.6778   0.42560675   -796.59995   0.56779735   -796.65368   0.71231012    -796.8299   0.85616045   -797.03658            1   -797.19189 
124  0.077805668  0.032792586  0.031534646  0.043033559   0.09441202   0.41184743   0.59181205     3.850995            0   -797.01192   0.14246743   -796.92246   0.28451046   -796.67798   0.42564061   -796.60007   0.56781746   -796.65384   0.71230382   -796.82997    0.8561492   -797.03665            1   -797.19188 
125  0.076990616  0.032415016  0.031280872   0.04247369  0.093769565   0.41174924   0.59167883    3.8520312            0   -797.01195   0.14249054   -796.92258   0.28454883   -796.67816   0.42567619    -796.6002   0.56783881   -796.65401   0.71229747   -796.83003   0.85613763   -797.03671            1   -797.19188 
126  0.076142616  0.032021813  0.031016271  0.041893645  0.093105272   0.41164803   0.59154107    3.8531089            0   -797.01198   0.14251446    -796.9227   0.28458863   -796.67835   0.42571349   -796.60033   0.56786144   -796.65419   0.71229113    -796.8301   0.85612576   -797.03678            1   -797.19187 
127  0.075262224  0.031613214  0.030740934  0.041294093  0.092420096   0.41154362   0.59139861    3.8542272            0   -797.01201   0.14253915   -796.92283   0.28462982   -796.67855   0.42575252   -796.60046   0.56788537   -796.65437   0.71228482   -796.83017   0.85611363   -797.03686            1   -797.19186 
128   0.07435001  0.031189468   0.03045495  0.040675722  0.091715019   0.41143657   0.59125204    3.8553852            0   -797.01204   0.14256456   -796.92296   0.28467235   -796.67876   0.42579328    -796.6006   0.56791066   -796.65456   0.71227859   -796.83024   0.85610128   -797.03693            1   -797.19185 
129  0.073406568  0.030750841  0.030158415  0.040039236  0.090991054    0.4113274   0.59110158    3.8565823            0   -797.01207   0.14259066    -796.9231   0.28471616   -796.67897   0.42583576   -796.60074   0.56793732   -796.65475   0.71227249   -796.83031   0.85608873   -797.03701            1   -797.19184 
130  0.072432506  0.030297609  0.029851425  0.039385351  0.090249241    0.4112167   0.59094744    3.8578174            0    -797.0121   0.14261741   -796.92324   0.28476118   -796.67919   0.42587996   -796.60089   0.56796539   -796.65495   0.71226655   -796.83039   0.85607604    -797.0371            1   -797.19183 
131  0.071428454  0.029830067   0.02953406  0.038714798  0.089490646   0.41110273    0.5907886    3.8590896            0   -797.01214   0.14264474   -796.92339   0.28480735   -796.67941   0.42592587   -796.60103    0.5679949   -796.65515   0.71226084   -796.83046   0.85606323   -797.03718            1   -797.19182 
132  0.070395058  0.029348523  0.029206409  0.038028319  0.088716333   0.41098565   0.59062528     3.860398            0   -797.01217   0.14267262   -796.92354    0.2848546   -796.67964   0.42597347   -796.60119   0.56802588   -796.65536   0.71225541   -796.83054   0.85605034   -797.03727            1   -797.19181 
133  0.069332981  0.028853306  0.028868561  0.037326669  0.087927425   0.41086688   0.59045894    3.8617415            0   -797.01221   0.14270098   -796.92369   0.28490286   -796.67988   0.42602275   -796.60134   0.56805837   -796.65557   0.71225029   -796.83062   0.85603743   -797.03736            1    -797.1918 
134  0.068242898  0.028344742  0.028520602  0.036610616  0.087125102   0.41074659    0.5902899    3.8631193            0   -797.01225   0.14272977   -796.92384   0.28495204   -796.68013   0.42607368    -796.6015   0.56809238   -796.65578   0.71224556    -796.8307   0.85602453   -797.03745            1   -797.19179 
135  0.067125511  0.027823226  0.028162618  0.035880949  0.086310548   0.41062496   0.59011871    3.8645302            0   -797.01228   0.14275894     -796.924   0.28500207   -796.68038   0.42612623   -796.60166   0.56812794   -796.65599   0.71224126   -796.83078   0.85601169   -797.03754            1   -797.19178 
136   0.06598153  0.027289063  0.027794692  0.035138419  0.085485019   0.41050342   0.58994642    3.8659732            0   -797.01232   0.14278841   -796.92416   0.28505286   -796.68063   0.42618038   -796.60182   0.56816508   -796.65621   0.71223746   -796.83086   0.85599895   -797.03764            1   -797.19176 
137    0.0648117  0.026742804  0.027416906   0.03438381  0.084649796   0.41038353   0.58977475    3.8674472            0   -797.01236   0.14281812   -796.92432    0.2851043   -796.68089   0.42623608   -796.60198   0.56820382   -796.65643   0.71223422   -796.83095   0.85598638   -797.03774            1   -797.19175 
138  0.063616751  0.026184438  0.027029338   0.03361791  0.083805959   0.41026302   0.58960146     3.868951            0    -797.0124   0.14284801   -796.92449   0.28515631   -796.68116    0.4262933   -796.60213   0.56824417   -796.65665    0.7122316   -796.83103   0.85597401   -797.03784            1   -797.19174 
139  0.062397634  0.025615524  0.026632066  0.032841512  0.082955054   0.41014183   0.58942643    3.8704835            0   -797.01244     0.142878   -796.92466   0.28520876   -796.68143   0.42635197    -796.6023   0.56828614   -796.65688   0.71222967   -796.83112   0.85596192   -797.03795            1   -797.19172 
140  0.061155887  0.025033232  0.026225196  0.032055416  0.082099144   0.41002102   0.58925092    3.8720436            0   -797.01248   0.14290802   -796.92483   0.28526157   -796.68171   0.42641205   -796.60246   0.56832976   -796.65711    0.7122285   -796.83121   0.85595015   -797.03805            1   -797.19171 
141  0.059903858  0.024448114  0.025809125   0.03126052  0.081253248   0.40989839   0.58907238    3.8736298            0   -797.01252   0.14293796     -796.925   0.28531458   -796.68199   0.42647346   -796.60262   0.56837501   -796.65734   0.71222815   -796.83131   0.85593876   -797.03816            1   -797.19169 
142   0.05876799  0.023828674  0.025387565  0.030458553  0.080555701   0.40978171    0.5888996    3.8752398            0   -797.01256    0.1429678   -796.92518   0.28536766   -796.68227   0.42653609   -796.60277    0.5684219   -796.65757   0.71222871    -796.8314   0.85592784   -797.03828            1   -797.19167 
143   0.06156513  0.023291947  0.025003998  0.029661035  0.081709226   0.40965001   0.58870948    3.8768548            0    -797.0126   0.14299682   -796.92532    0.2854201   -796.68255   0.42659914   -796.60295   0.56846981    -796.6578   0.71223022    -796.8315   0.85591752   -797.03839            1   -797.19166 
144   0.11818452  0.033257772  0.025029235   0.02898258   0.09722657   0.40960335   0.58861774    3.8782905            0   -797.01263   0.14302265   -796.92552   0.28546595   -796.68282   0.42665572   -796.60302    0.5685138     -796.658   0.71223276   -796.83157   0.85590926    -797.0385            1   -797.19164 
145  0.062134293  0.022589552  0.024493851  0.028728685  0.080867753   0.40951327   0.58850732    3.8787474            0   -797.01264   0.14302926   -796.92552   0.28547994   -796.68289   0.42667336   -796.60313   0.56852758   -796.65806   0.71223351   -796.83161   0.85590656   -797.03853            1   -797.19164 
146  0.055661259  0.022440798  0.024371586  0.028590497  0.078474575   0.40949977   0.58848479    3.8790219            0   -797.01265     0.143034   -796.92558   0.28548848   -796.68295   0.42668416   -796.60315   0.56853612    -796.6581   0.71223415   -796.83162   0.85590512   -797.03855            1   -797.19163 
147  0.055321344  0.022315416  0.024285523  0.028438661  0.078221486   0.40947935   0.58845381    3.8793308            0   -797.01266   0.14303924   -796.92562   0.28549807     -796.683   0.42669631   -796.60318   0.56854574   -796.65815   0.71223492   -796.83164   0.85590351   -797.03857            1   -797.19163 
148   0.05504851  0.022188218  0.024193587  0.028273134  0.078045955   0.40945541   0.58841818    3.8796681            0   -797.01266   0.14304491   -796.92565   0.28550852   -796.68306   0.42670957   -796.60321   0.56855627   -796.65819   0.71223579   -796.83166   0.85590177    -797.0386            1   -797.19163 
149  0.054753522  0.022051311  0.024093828  0.028093994  0.077857321   0.40942937   0.58837944    3.8800337            0   -797.01267   0.14305102   -796.92569   0.28551979   -796.68313   0.42672395   -796.60324   0.56856772   -796.65824   0.71223679   -796.83168   0.85589993   -797.03863            1   -797.19162 
150  0.054435863  0.021903895  0.023986247  0.027901408  0.077654919   0.40940145   0.58833787    3.8804272            0   -797.01268   0.14305755   -796.92574   0.28553187    -796.6832   0.42673943   -796.60328   0.56858009    -796.6583   0.71223792    -796.8317   0.85589799   -797.03866            1   -797.19162 
151  0.054095714  0.021746077  0.023870869  0.027695557  0.077439026   0.40937171   0.58829352    3.8808485            0   -797.01269    0.1430645   -796.92578   0.28554473   -796.68328     0.426756   -796.60332   0.56859339   -796.65836    0.7122392   -796.83173   0.85589595   -797.03869            1   -797.19161 
152  0.053733267  0.021577953  0.023747719  0.027476632  0.077209939    0.4093402   0.58824646    3.8812972            0    -797.0127   0.14307185   -796.92583   0.28555836   -796.68336   0.42677366   -796.60336   0.56860763   -796.65842   0.71224064   -796.83175   0.85589384   -797.03872            1   -797.19161 
153  0.053348465  0.021399092  0.023616825  0.027244841  0.076967966   0.40930694   0.58819672    3.8817731            0   -797.01272   0.14307957   -796.92588   0.28557273   -796.68344   0.42679239   -796.60341    0.5686228   -796.65849   0.71224226   -796.83178   0.85589167   -797.03876            1   -797.19161 
154  0.052941322  0.021209191  0.023478216    0.0270004   0.07671346   0.40927201    0.5881444    3.8822758            0   -797.01273   0.14308766   -796.92593   0.28558782   -796.68353   0.42681218   -796.60346    0.5686389   -796.65856   0.71224408   -796.83181   0.85588945    -797.0388            1    -797.1916 
155  0.052512508  0.021009293  0.023331922  0.026743538   0.07644678   0.40923555   0.58808965     3.882805            0   -797.01274   0.14309609   -796.92599   0.28560359   -796.68362   0.42683301    -796.6035   0.56865594   -796.65863    0.7122461   -796.83184   0.85588719   -797.03884            1   -797.19159 
156  0.052062275  0.020799536  0.023177975  0.026474495  0.076168302   0.40919772   0.58803266    3.8833604            0   -797.01275   0.14310485   -796.92605   0.28562001   -796.68372   0.42685486   -796.60356   0.56867392    -796.6587   0.71224836   -796.83188   0.85588491   -797.03888            1   -797.19159 
157  0.051590881  0.020580068  0.023016407  0.026193522  0.075878422   0.40915842   0.58797332    3.8839416            0   -797.01277   0.14311391   -796.92611   0.28563705   -796.68383   0.42687772   -796.60361   0.56869284   -796.65878   0.71225085   -796.83191   0.85588263   -797.03892            1   -797.19158 
158  0.051098601  0.020351043  0.022847254   0.02590088  0.075577555   0.40911772   0.58791173    3.8845481            0   -797.01278   0.14312325   -796.92617   0.28565468   -796.68393   0.42690158   -796.60366   0.56871271   -796.65887   0.71225362   -796.83195   0.85588036   -797.03897            1   -797.19158 
159  0.050585721  0.020112624   0.02267055  0.025596841  0.075266134   0.40907566   0.58784796    3.8851796            0    -797.0128   0.14313284   -796.92624   0.28567286   -796.68405    0.4269264   -796.60372   0.56873351   -796.65895   0.71225667   -796.83198   0.85587812   -797.03902            1   -797.19157 
160   0.05005254  0.019864983  0.022486331  0.025281688  0.074944608   0.40903234   0.58778211    3.8858357            0   -797.01281   0.14314266   -796.92631   0.28569155   -796.68416   0.42695216   -796.60378   0.56875526   -796.65904   0.71226003   -796.83202   0.85587594   -797.03907            1   -797.19156 
161  0.049499367    0.0196083  0.022294636  0.024955709  0.074613445   0.40898781   0.58771428    3.8865159            0   -797.01283   0.14315269   -796.92638   0.28571071   -796.68429   0.42697885   -796.60384   0.56877796   -796.65913   0.71226372   -796.83206   0.85587382   -797.03913            1   -797.19155 
162  0.048926529  0.019342761  0.022095502  0.024619206  0.074273128   0.40894216   0.58764455    3.8872198            0   -797.01284   0.14316289   -796.92645    0.2857303   -796.68441   0.42700643    -796.6039    0.5688016   -796.65923   0.71226777   -796.83211   0.85587181   -797.03918            1   -797.19155 
163  0.048334358  0.019068564  0.021888968  0.024272487   0.07392416   0.40889556   0.58757303    3.8879468            0   -797.01286   0.14317323   -796.92653   0.28575027   -796.68454   0.42703488   -796.60396   0.56882617   -796.65932   0.71227218   -796.83215    0.8558699   -797.03924            1   -797.19154 
164  0.047723203  0.018785912   0.02167507  0.023915868  0.073567056    0.4088483   0.58749982    3.8886964            0   -797.01288   0.14318369    -796.9266   0.28577058   -796.68468   0.42706417   -796.60403   0.56885169   -796.65942   0.71227701    -796.8322   0.85586814    -797.0393            1   -797.19153 
165  0.047093423  0.018495017  0.021453853  0.023549673  0.073202348   0.40880006   0.58742502    3.8894682            0    -797.0129   0.14319423   -796.92668   0.28579118   -796.68481   0.42709425    -796.6041   0.56887814   -796.65952   0.71228225   -796.83224   0.85586654   -797.03937            1   -797.19152 
166  0.046445383  0.018196102  0.021225355  0.023174233  0.072830585   0.40875101   0.58734873    3.8902616            0   -797.01291   0.14320481   -796.92676   0.28581202   -796.68496   0.42712511   -796.60416   0.56890552   -796.65963   0.71228796   -796.83229   0.85586513   -797.03944            1   -797.19151 
167  0.045779462  0.017889393  0.020989619  0.022789888  0.072452328   0.40870126   0.58727108     3.891076            0   -797.01293    0.1432154   -796.92684   0.28583303    -796.6851   0.42715671   -796.60423   0.56893382   -796.65973   0.71229414   -796.83234   0.85586393    -797.0395            1    -797.1915 
168  0.045096067  0.017575145  0.020746686   0.02239698  0.072068169   0.40865086   0.58719216    3.8919109            0   -797.01295   0.14322597   -796.92692   0.28585417   -796.68525   0.42718899    -796.6043   0.56896304   -796.65983   0.71230082   -796.83239   0.85586298   -797.03957            1   -797.19149 
169  0.044395606  0.017253602  0.020496595   0.02199586  0.071678701   0.40859992   0.58711209    3.8927656            0   -797.01297   0.14323647   -796.92701   0.28587538   -796.68541   0.42722192   -796.60437   0.56899317   -796.65993   0.71230805   -796.83245   0.85586229   -797.03964            1   -797.19148 
170  0.043678491  0.016925031  0.020239389  0.021586885  0.071284526    0.4085485   0.58703099    3.8936396            0   -797.01299   0.14324686   -796.92709   0.28589659   -796.68557   0.42725545   -796.60444   0.56902419   -796.66003   0.71231583    -796.8325   0.85586191   -797.03972            1   -797.19147 
171  0.042945149  0.016589668  0.019975109  0.021170416  0.070886265   0.40849671   0.58694898    3.8945322            0   -797.01301   0.14325711   -796.92718   0.28591775   -796.68573   0.42728955   -796.60451    0.5690561   -796.66014   0.71232421   -796.83256   0.85586185   -797.03979            1   -797.19146 
172  0.042195949  0.016247868  0.019703797  0.020746819   0.07048454   0.40844463   0.58686617    3.8954427            0   -797.01303   0.14326716   -796.92727   0.28593878   -796.68589   0.42732415   -796.60459   0.56908888   -796.66025    0.7123332   -796.83261   0.85586216   -797.03987            1   -797.19145 
173  0.041431414  0.015899629  0.019425495  0.020316464  0.070080017   0.40839232   0.58678266    3.8963705            0   -797.01305   0.14327698   -796.92736   0.28595962   -796.68605    0.4273592   -796.60466   0.56912253   -796.66036   0.71234286   -796.83267   0.85586286   -797.03995            1   -797.19144 
174  0.040652184  0.015546086  0.019140285  0.019879729  0.069673293   0.40834295   0.58670164     3.897315            0   -797.01307   0.14328651   -796.92746    0.2859802   -796.68622   0.42739466   -796.60473   0.56915702   -796.66047    0.7123532   -796.83273   0.85586399   -797.04003            1   -797.19143 
175  0.039860337  0.015185044  0.018848229  0.019437043  0.069265753   0.40829387    0.5866205    3.8982753            0   -797.01309   0.14329572   -796.92755   0.28600043   -796.68639   0.42743045    -796.6048   0.56919234   -796.66058   0.71236425   -796.83279   0.85586559   -797.04011            1   -797.19142 
176   0.03907597  0.014825178  0.018549959  0.018989165   0.06886268   0.40824552   0.58653976    3.8992498            0   -797.01311   0.14330454   -796.92765   0.28602024   -796.68657   0.42746649   -796.60487   0.56922844   -796.66069   0.71237605   -796.83284   0.85586769   -797.04021            1   -797.19141 
177  0.042222442  0.014443457  0.018252339  0.018540903  0.068528555   0.40819532   0.58645728    3.9002287            0   -797.01313   0.14331281   -796.92774   0.28603931   -796.68674   0.42750233   -796.60494   0.56926491    -796.6608   0.71238844    -796.8329   0.85587026   -797.04027            1    -797.1914 
178  0.086238794  0.026552295  0.018020685  0.018141438  0.068781893   0.40815813   0.58639087    3.9011033            0   -797.01315    0.1433197   -796.92783   0.28605564   -796.68689   0.42753397   -796.60499   0.56929762   -796.66091   0.71240004   -796.83294   0.85587321    -797.0404            1   -797.19139 
179  0.049029023  0.013997132  0.017887452  0.018001464  0.068109223   0.40813711   0.58636052    3.9014099            0   -797.01316   0.14332187   -796.92786   0.28606107   -796.68696   0.42754506   -796.60502   0.56930937   -796.66093   0.71240434   -796.83297   0.85587471   -797.04037            1   -797.19138 
180  0.037181757  0.013954581  0.017832382  0.017933361  0.067923205   0.40813113   0.58634943    3.9015586            0   -797.01316   0.14332295   -796.92788   0.28606373   -796.68698   0.42755044   -796.60503   0.56931506   -796.66095   0.71240653   -796.83297   0.85587539   -797.04041            1   -797.19138 
181  0.036989073  0.013894248  0.017776997  0.017854359  0.067842022   0.40812323   0.58633581    3.9017316            0   -797.01317   0.14332415   -796.92789   0.28606676   -796.68701   0.42755665   -796.60504   0.56932164   -796.66097   0.71240903   -796.83298    0.8558761   -797.04043            1   -797.19138 
182  0.036828209  0.013823793  0.017716612  0.017767282   0.06776502   0.40811415   0.58632049    3.9019226            0   -797.01317   0.14332545   -796.92791   0.28607007   -796.68705   0.42756347   -796.60506    0.5693289     -796.661   0.71241179   -796.83299   0.85587689   -797.04045            1   -797.19138 
183  0.036654123  0.013746227  0.017650683  0.017672387   0.06768176    0.4081042   0.58630376    3.9021308            0   -797.01317   0.14332685   -796.92793   0.28607364   -796.68708    0.4275709   -796.60507   0.56933682   -796.66102   0.71241483   -796.83301   0.85587777   -797.04047            1   -797.19137 
184  0.036465639  0.013662239  0.017579199  0.017569751  0.067591977   0.40809348    0.5862857    3.9023562            0   -797.01318   0.14332833   -796.92796   0.28607746   -796.68713   0.42757892   -796.60509   0.56934541   -796.66105   0.71241816   -796.83302   0.85587875   -797.04049            1   -797.19137 
185  0.036262851  0.013571944  0.017502174  0.017459454  0.067495795     0.408082   0.58626634    3.9025985            0   -797.01318   0.14332989   -796.92798   0.28608151   -796.68717   0.42758752    -796.6051   0.56935466   -796.66107   0.71242177   -796.83303   0.85587983   -797.04051            1   -797.19137 
186  0.036045866  0.013475404  0.017419622  0.017341583  0.067393359   0.40806978   0.58624571    3.9028578            0   -797.01319   0.14333152   -796.92801    0.2860858   -796.68722    0.4275967   -796.60512   0.56936457    -796.6611   0.71242567   -796.83305   0.85588102   -797.04054            1   -797.19137 
187  0.035814798  0.013372688  0.017331557   0.01721623  0.067284823   0.40805686   0.58622383    3.9031337            0    -797.0132   0.14333321   -796.92803   0.28609029   -796.68727   0.42760643   -796.60514   0.56937513   -796.66114   0.71242987   -796.83306   0.85588234   -797.04056            1   -797.19136 
188   0.03556977  0.013263869  0.017237995  0.017083494  0.067170349   0.40804323   0.58620074    3.9034261            0    -797.0132   0.14333494   -796.92806   0.28609497   -796.68732    0.4276167   -796.60516   0.56938634   -796.66117   0.71243439   -796.83308   0.85588378   -797.04059            1   -797.19136 
189  0.035310913  0.013149027  0.017138954  0.016943479  0.067050112   0.40802894   0.58617646    3.9037349            0   -797.01321   0.14333671   -796.92809   0.28609983   -796.68738   0.42762751   -796.60518    0.5693982    -796.6612   0.71243921    -796.8331   0.85588536   -797.04062            1   -797.19136 
190  0.035038366  0.013028244  0.017034451  0.016796296  0.066924296     0.408014   0.58615104    3.9040598            0   -797.01321   0.14333851   -796.92812   0.28610485   -796.68744   0.42763884    -796.6052    0.5694107   -796.66124   0.71244436   -796.83312   0.85588707   -797.04065            1   -797.19135 
191  0.034752273  0.012901608  0.016924505   0.01664206  0.066793091   0.40799844    0.5861245    3.9044006            0   -797.01322   0.14334032   -796.92816      0.28611    -796.6875   0.42765067   -796.60522   0.56942384   -796.66128   0.71244985   -796.83314   0.85588895   -797.04069            1   -797.19135 
192  0.034452786  0.012769215  0.016809136  0.016480893  0.066656702   0.40798229   0.58609688    3.9047571            0   -797.01323   0.14334213   -796.92819   0.28611527   -796.68756   0.42766298   -796.60525   0.56943762   -796.66132   0.71245567   -796.83316   0.85589098   -797.04072            1   -797.19134 
193  0.034140083   0.01263116  0.016688365  0.016312921  0.066515337   0.40796556   0.58606822    3.9051291            0   -797.01324   0.14334392   -796.92822   0.28612063   -796.68763   0.42767576   -796.60527   0.56945202   -796.66136   0.71246184   -796.83318   0.85589319   -797.04076            1   -797.19134 
194  0.033814329  0.012487548  0.016562214  0.016138276  0.066369219   0.40794823   0.58603847    3.9055163            0   -797.01324   0.14334569   -796.92826   0.28612607    -796.6877   0.42768899    -796.6053   0.56946704   -796.66141   0.71246836   -796.83321   0.85589558   -797.04079            1   -797.19133 
195   0.03347569  0.012338486  0.016430705  0.015957095  0.066218575   0.40793034   0.58600772    3.9059185            0   -797.01325   0.14334741    -796.9283   0.28613155   -796.68777   0.42770266   -796.60532   0.56948268   -796.66145   0.71247526   -796.83323   0.85589816   -797.04083            1   -797.19133 
196  0.033124363  0.012184087  0.016293861  0.015769519  0.066063641   0.40791183    0.5859759    3.9063353            0   -797.01326   0.14334907   -796.92833   0.28613706   -796.68785   0.42771673   -796.60535   0.56949892    -796.6615   0.71248253   -796.83325   0.85590095   -797.04087            1   -797.19133 
197  0.032760527  0.012024466  0.016151707  0.015575694   0.06590466   0.40789271   0.58594305    3.9067666            0   -797.01327   0.14335066   -796.92837   0.28614256   -796.68793   0.42773118   -796.60538   0.56951577   -796.66155    0.7124902   -796.83328   0.85590396   -797.04092            1   -797.19132 
198  0.032384374  0.011859746  0.016004267  0.015375772  0.065741884   0.40787316   0.58590936    3.9072121            0   -797.01328   0.14335215   -796.92841   0.28614804   -796.68801   0.42774601   -796.60541   0.56953321    -796.6616   0.71249826   -796.83331   0.85590719   -797.04096            1   -797.19131 
199  0.031996107  0.011690053  0.015851568  0.015169907  0.065575573   0.40785321   0.58587487    3.9076713            0   -797.01329   0.14335353   -796.92846   0.28615345   -796.68809   0.42776117   -796.60543   0.56955124   -796.66165   0.71250673   -796.83334   0.85591068   -797.04101            1   -797.19131 
200  0.031595937   0.01151552  0.015693636  0.014958259  0.065405994   0.40783289   0.58583962    3.9081441            0    -797.0133   0.14335478    -796.9285   0.28615878   -796.68818   0.42777665   -796.60546   0.56956984   -796.66171   0.71251563   -796.83337   0.85591442   -797.04105            1    -797.1913 
201  0.031184082  0.011336284  0.015530497   0.01474099  0.065233423   0.40781225   0.58580368    3.9086301            0   -797.01331   0.14335588   -796.92854   0.28616399   -796.68827   0.42779242   -796.60549   0.56958901   -796.66176   0.71252496    -796.8334   0.85591843    -797.0411            1    -797.1913 
202  0.030760765  0.011152485  0.015362181  0.014518269  0.065058139    0.4077913   0.58576708     3.909129            0   -797.01332   0.14335681   -796.92859   0.28616905   -796.68836   0.42780846   -796.60553   0.56960874   -796.66182   0.71253473   -796.83343   0.85592272   -797.04115            1   -797.19129 
203  0.030326215  0.010964271  0.015188714  0.014290265  0.064880431    0.4077701   0.58572988    3.9096404            0   -797.01333   0.14335755   -796.92864   0.28617394   -796.68846   0.42782473   -796.60556   0.56962902   -796.66188   0.71254497   -796.83346   0.85592732   -797.04121            1   -797.19129 
204   0.02988067  0.010771793  0.015010128  0.014057152  0.064700591   0.40774863    0.5856921     3.910164            0   -797.01334   0.14335808   -796.92868    0.2861786   -796.68855    0.4278412   -796.60559   0.56964983   -796.66194   0.71255567   -796.83349   0.85593223   -797.04126            1   -797.19128 
205  0.029424372  0.010575207   0.01482645  0.013819109  0.064518911   0.40772598   0.58565281    3.9106994            0   -797.01335   0.14335837   -796.92873   0.28618302   -796.68865   0.42785786   -796.60562   0.56967117     -796.662   0.71256686   -796.83353   0.85593748   -797.04132            1   -797.19127 
206  0.028957565   0.01037467  0.014637711  0.013576314  0.064335704   0.40770314   0.58561307    3.9112463            0   -797.01336   0.14335841   -796.92878   0.28618715   -796.68875   0.42787466   -796.60565   0.56969303   -796.66206   0.71257854   -796.83356   0.85594307   -797.04138            1   -797.19127 
207  0.028480516   0.01017036  0.014443945   0.01332895   0.06415128   0.40768005    0.5855729    3.9118042            0   -797.01337   0.14335818   -796.92883   0.28619097   -796.68886   0.42789157   -796.60569   0.56971538   -796.66212   0.71259073    -796.8336   0.85594902   -797.04144            1   -797.19126 
208  0.027993462 0.0099624059  0.014245187  0.013077205  0.063965951   0.40765651   0.58553239    3.9123727            0   -797.01338   0.14335764   -796.92888   0.28619443   -796.68896   0.42790856   -796.60572   0.56973822   -796.66219   0.71260345   -796.83364   0.85595536    -797.0415            1   -797.19125 
209  0.027496847 0.0097511157  0.014041462  0.012821265  0.063780036   0.40763289   0.58549156    3.9129515            0   -797.01339   0.14335678   -796.92893   0.28619749   -796.68907    0.4279256   -796.60576   0.56976153   -796.66225    0.7126167   -796.83367    0.8559621   -797.04156            1   -797.19125 
210  0.026991604 0.0095362193  0.013832808  0.012561177  0.063593856   0.40760926   0.58545104    3.9135401            0    -797.0134   0.14335557   -796.92898   0.28620013   -796.68918   0.42794265   -796.60579    0.5697853   -796.66232    0.7126305   -796.83371   0.85596926   -797.04163            1   -797.19124 
211  0.026488849 0.0093195146  0.013619313  0.012297209  0.063407835   0.40758558   0.58541077    3.9141381            0   -797.01341   0.14335398   -796.92904   0.28620229   -796.68929   0.42795968   -796.60583   0.56980951   -796.66239   0.71264486   -796.83375   0.85597685    -797.0417            1   -797.19124 
212  0.026105345 0.0090961576  0.013401607  0.012030363  0.063222979   0.40756219   0.58537069    3.9147431            0   -797.01342   0.14335202   -796.92909   0.28620392   -796.68941   0.42797657   -796.60586   0.56983407   -796.66246   0.71265975    -796.8338   0.85598486   -797.04176            1   -797.19123 
213  0.036690831 0.0088929475  0.013186628  0.011768459  0.063048691   0.40753904   0.58533117    3.9153385            0   -797.01343   0.14334964   -796.92914   0.28620503   -796.68952    0.4279929   -796.60589   0.56985829   -796.66251   0.71267476   -796.83384   0.85599311   -797.04185            1   -797.19122 
214  0.068078833  0.021354995  0.013033597  0.011580732  0.062940427   0.40752395   0.58530451    3.9157643            0   -797.01344   0.14334777   -796.92919   0.28620517    -796.6896   0.42800416   -796.60592   0.56987557   -796.66257   0.71268563   -796.83387   0.85599932   -797.04182            1   -797.19122 
215  0.041180642  0.011881473  0.013008916  0.011554358  0.062906445   0.40752143   0.58530033    3.9158239            0   -797.01344   0.14334744   -796.92919   0.28620525   -796.68961   0.42800583   -796.60592   0.56987812   -796.66258   0.71268731   -796.83387   0.85600034   -797.04186            1   -797.19122 
216  0.025235972 0.0086722271  0.012976266  0.011516529  0.062875322   0.40751799   0.58529454    3.9159099            0   -797.01344   0.14334697    -796.9292    0.2862053   -796.68963   0.42800814   -796.60592   0.56988168   -796.66259   0.71268963   -796.83388   0.85600169   -797.04189            1   -797.19122 
217  0.024858644 0.0086374813  0.012937448  0.011470365  0.062843925   0.40751398   0.58528767    3.9160148            0   -797.01344   0.14334641    -796.9292    0.2862053   -796.68965   0.42801092   -796.60593   0.56988599    -796.6626   0.71269243   -796.83389   0.85600328   -797.04191            1   -797.19122 
218  0.024747466 0.0085959212  0.012894454   0.01141915  0.062809968   0.40750964   0.58528016    3.9161312            0   -797.01345   0.14334578   -796.92921   0.28620527   -796.68967   0.42801397   -796.60594   0.56989076   -796.66261   0.71269554   -796.83389   0.85600505   -797.04193            1   -797.19122 
219  0.024636664 0.0085500484  0.012847464   0.01136327  0.062773074   0.40750494   0.58527202    3.9162581            0   -797.01345   0.14334508   -796.92923   0.28620521    -796.6897   0.42801728   -796.60594   0.56989597   -796.66262   0.71269894    -796.8339   0.85600699   -797.04194            1   -797.19121 
220  0.024516677  0.008500371  0.012796487   0.01130277  0.062733288   0.40749988   0.58526323    3.9163955            0   -797.01345    0.1433443   -796.92924   0.28620511   -796.68972   0.42802085   -796.60595   0.56990161   -796.66264   0.71270265   -796.83391   0.85600912   -797.04196            1   -797.19121 
221  0.024387501  0.008446947  0.012741532   0.01123769  0.062690675   0.40749446    0.5852538    3.9165434            0   -797.01345   0.14334344   -796.92925   0.28620498   -796.68975   0.42802467   -796.60596   0.56990769   -796.66265   0.71270666   -796.83392   0.85601142   -797.04198            1   -797.19121 
222  0.024249197 0.0083898093   0.01268261  0.011168075  0.062645307   0.40748868   0.58524375    3.9167017            0   -797.01346   0.14334249   -796.92927   0.28620479   -796.68978   0.42802874   -796.60597   0.56991419   -796.66267   0.71271098   -796.83394   0.85601391     -797.042            1   -797.19121 
223  0.024101833 0.0083290001   0.01261973  0.011093972  0.062597257   0.40748257   0.58523308    3.9168702            0   -797.01346   0.14334145   -796.92928   0.28620455   -796.68981   0.42803304   -796.60598   0.56992112   -796.66269    0.7127156   -796.83395   0.85601659   -797.04202            1   -797.19121 
224  0.023945481 0.0082645635  0.012552904   0.01101543  0.062546607   0.40747612   0.58522182    3.9170488            0   -797.01346   0.14334032    -796.9293   0.28620425   -796.68985   0.42803757   -796.60599   0.56992847   -796.66271   0.71272054   -796.83396   0.85601947   -797.04204            1   -797.19121 
225  0.023780218  0.008196547  0.012482145  0.010932503   0.06249344   0.40746935   0.58520997    3.9172375            0   -797.01346   0.14333908   -796.92931   0.28620387   -796.68989   0.42804232     -796.606   0.56993625   -796.66273   0.71272579   -796.83397   0.85602254   -797.04206            1   -797.19121 
226  0.023606125 0.0081250007  0.012407465  0.010845247  0.062437847   0.40746226   0.58519755    3.9174361            0   -797.01347   0.14333774   -796.92933    0.2862034   -796.68992   0.42804728   -796.60601   0.56994443   -796.66275   0.71273136   -796.83399   0.85602581   -797.04209            1    -797.1912 
227  0.023423287 0.0080499777  0.012328878  0.010753697  0.062379919   0.40745488   0.58518465    3.9176445            0   -797.01347   0.14333628   -796.92935   0.28620285   -796.68996   0.42805244   -796.60602   0.56995303   -796.66278   0.71273725   -796.83401   0.85602929   -797.04211            1    -797.1912 
228  0.023231795 0.0079715339  0.012246399  0.010657834  0.062319755   0.40744721   0.58517155    3.9178626            0   -797.01348    0.1433347   -796.92937   0.28620218   -796.69001   0.42805779   -796.60603   0.56996203    -796.6628   0.71274347   -796.83402   0.85603298   -797.04214            1    -797.1912 
229  0.023031744 0.0078897281  0.012160043  0.010557825  0.062257458   0.40743926   0.58515796    3.9180902            0   -797.01348   0.14333299   -796.92939    0.2862014   -796.69005   0.42806332   -796.60604   0.56997144   -796.66282   0.71275001   -796.83404   0.85603689   -797.04217            1    -797.1912 
230  0.022823233 0.0078046219  0.012069825  0.010453736  0.062193133   0.40743105   0.58514388    3.9183271            0   -797.01348   0.14333114   -796.92941    0.2862005    -796.6901   0.42806902   -796.60605   0.56998124   -796.66285   0.71275689   -796.83406   0.85604101    -797.0422            1    -797.1912 
231  0.022606363 0.0077162797  0.011975763  0.010345638  0.062126891   0.40742259   0.58512934    3.9185733            0   -797.01349   0.14332915   -796.92943   0.28619945   -796.69014   0.42807488   -796.60606   0.56999143   -796.66288   0.71276411   -796.83408   0.85604537   -797.04223            1   -797.19119 
232  0.022381244 0.0076247685  0.011877874  0.010233605  0.062058845   0.40741389   0.58511436    3.9188285            0   -797.01349   0.14332701   -796.92945   0.28619825   -796.69019   0.42808088   -796.60608   0.57000201   -796.66291   0.71277166    -796.8341   0.85604995   -797.04226            1   -797.19119 
233  0.022147987 0.0075301583  0.011776176  0.010117712  0.061989112   0.40740498   0.58509895    3.9190926            0    -797.0135   0.14332471   -796.92948   0.28619688   -796.69025   0.42808702   -796.60609   0.57001296   -796.66294   0.71277956   -796.83412   0.85605478   -797.04229            1   -797.19119 
234  0.021906707 0.0074325215  0.011670687 0.0099980362  0.061917815   0.40739585   0.58508315    3.9193654            0    -797.0135   0.14332225    -796.9295   0.28619534    -796.6903   0.42809327    -796.6061   0.57002429   -796.66297   0.71278781   -796.83414   0.85605985   -797.04233            1   -797.19119 
235  0.021657529 0.0073319334  0.011561428 0.0098746586  0.061845076   0.40738653   0.58506696    3.9196467            0   -797.01351   0.14331961   -796.92952    0.2861936   -796.69036   0.42809963   -796.60612   0.57003599     -796.663   0.71279642   -796.83416   0.85606517   -797.04237            1   -797.19119 
236  0.021400592 0.0072284718  0.011448417 0.0097476617  0.061771024   0.40737704   0.58505041    3.9199364            0   -797.01351   0.14331678   -796.92955   0.28619165   -796.69041   0.42810608   -796.60613   0.57004805   -796.66303   0.71280538   -796.83419   0.85607075    -797.0424            1   -797.19118 
237  0.021136002 0.0071222176  0.011331677 0.0096171305  0.061695788   0.40736738   0.58503352    3.9202342            0   -797.01352   0.14331376   -796.92957   0.28618948   -796.69047   0.42811261   -796.60615   0.57006047   -796.66306   0.71281471   -796.83421   0.85607659   -797.04244            1   -797.19118 
238  0.020863891 0.0070132532  0.011211228 0.0094831521  0.061619502   0.40735758   0.58501632      3.92054            0   -797.01352   0.14331054    -796.9296   0.28618707   -796.69053    0.4281192   -796.60616   0.57007323    -796.6631    0.7128244   -796.83423   0.85608271   -797.04248            1   -797.19118 
239  0.020584394  0.006901665  0.011087092 0.0093458143  0.061542302   0.40734765   0.58499882    3.9208535            0   -797.01353    0.1433071   -796.92963   0.28618441   -796.69059   0.42812584   -796.60618   0.57008634   -796.66313   0.71283447   -796.83426    0.8560891   -797.04252            1   -797.19118 
240  0.020297647  0.006787539  0.010959292 0.0092052078  0.061464325   0.40733761   0.58498107    3.9211746            0   -797.01353   0.14330345   -796.92966   0.28618149   -796.69066   0.42813252   -796.60619   0.57009977   -796.66316   0.71284491   -796.83429   0.85609578   -797.04257            1   -797.19117 
241  0.020003792 0.0066709688  0.010827851 0.0090614249  0.061385711   0.40732746   0.58496306     3.921503            0   -797.01354   0.14329956   -796.92968   0.28617827   -796.69072    0.4281392   -796.60621   0.57011354    -796.6632   0.71285574   -796.83431   0.85610275   -797.04261            1   -797.19117 
242  0.019702972 0.0065520401  0.010692793 0.0089145614  0.061306602   0.40731724   0.58494485    3.9218384            0   -797.01354   0.14329543   -796.92971   0.28617476   -796.69079   0.42814589   -796.60622   0.57012762   -796.66324   0.71286695   -796.83434   0.85611002   -797.04266            1   -797.19117 
243  0.019395338 0.0064308635  0.010554141  0.008764719  0.061227142   0.40730696   0.58492642    3.9221807            0   -797.01355   0.14329105   -796.92974   0.28617093   -796.69086   0.42815256   -796.60624   0.57014201   -796.66328   0.71287856   -796.83437    0.8561176    -797.0427            1   -797.19117 
244  0.019081042 0.0063074974  0.010411922 0.0086120606  0.061147477   0.40729663   0.58490788    3.9225296            0   -797.01355   0.14328641   -796.92977   0.28616676   -796.69093    0.4281592   -796.60626   0.57015671   -796.66331   0.71289057    -796.8344    0.8561255   -797.04275            1   -797.19116 
245  0.018760243 0.0061821416   0.01026616 0.0084571992  0.061067751   0.40728628   0.58488905    3.9228849            0   -797.01356    0.1432815    -796.9298   0.28616225     -796.691   0.42816579   -796.60627    0.5701717   -796.66335   0.71290299   -796.83443   0.85613373    -797.0428            1   -797.19116 
246  0.018433104 0.0060546202  0.010116882 0.0083052597  0.060988115   0.40727591   0.58487054    3.9232463            0   -797.01356   0.14327631   -796.92983   0.28615737   -796.69108   0.42817231   -796.60629   0.57018698   -796.66339   0.71291581   -796.83446   0.85614228   -797.04285            1   -797.19116 
247  0.018099973 0.0059258667 0.0099641329 0.0082081241   0.06090872   0.40726556    0.5848506    3.9236136            0   -797.01357   0.14327083   -796.92987   0.28615211   -796.69115   0.42817875    -796.6063   0.57020253   -796.66343   0.71292905    -796.8345   0.85615118    -797.0429            1   -797.19115 
248  0.017762624 0.0057936024 0.0098081108 0.0087296666  0.060829816   0.40725522   0.58483483     3.923986            0   -797.01357   0.14326505    -796.9299   0.28614645   -796.69123   0.42818507   -796.60632   0.57021833   -796.66347   0.71294268   -796.83453    0.8561604   -797.04296            1   -797.19115 
249  0.017441018 0.0056677719 0.0096508292  0.014408154   0.06075248   0.40724512   0.58480443    3.9243583            0   -797.01358   0.14325905   -796.92993   0.28614047    -796.6913   0.42819122   -796.60634    0.5702342   -796.66352   0.71295659   -796.83457   0.85616988   -797.04301            1   -797.19114 
250  0.036020607  0.011008331 0.0095137564  0.036020607  0.060687201   0.40723637   0.58481577    3.9246814            0   -797.01359   0.14325363   -796.92996   0.28613493   -796.69137   0.42819623   -796.60635    0.5702478   -796.66355   0.71296866   -796.83458    0.8561782   -797.04306            1   -797.19116 
251  0.017043002 0.0055196585 0.0094728726 0.0099791236  0.060667757   0.40723395   0.58478822    3.9247759            0   -797.01359     0.143252   -796.92996   0.28613329   -796.69139   0.42819779   -796.60635   0.57025201   -796.66356    0.7129725    -796.8346   0.85618081   -797.04307            1   -797.19114 
[...]
2166 0.00023146425 0.00014086614 5.4954321e-07 3.0974717e-07 0.00012781974   0.40201215   0.57925223    3.9600214            0    -797.0138   0.15683548   -796.91265   0.31366637   -796.65876   0.47048894   -796.61178   0.60280029   -796.70034   0.73515245   -796.86479   0.86755675   -797.06613            1   -797.19104 
2167 0.00038468025 0.0001371548 1.6850887e-06 9.2675527e-07 0.00012589153   0.40201205   0.57925212    3.9600249            0    -797.0138   0.15683569   -796.91265   0.31366669   -796.65876   0.47048925   -796.61178   0.60280201   -796.70034   0.73515459   -796.86479   0.86755821   -797.06613            1   -797.19104 
2168 0.00024876664 0.00013707733 8.1085172e-07 4.5470772e-07 0.00012504146   0.40201204   0.57925211    3.9600253            0    -797.0138   0.15683571   -796.91265   0.31366673   -796.65876   0.47048929   -796.61178   0.60280223   -796.70034   0.73515486   -796.86479   0.86755839   -797.06613            1   -797.19104 
2169 0.00020769233 0.00013671638 1.5531638e-07 9.3821853e-08 0.00012439354   0.40201202   0.57925209     3.960026            0    -797.0138   0.15683575   -796.91265   0.31366679   -796.65876   0.47048935   -796.61178   0.60280256   -796.70035   0.73515528    -796.8648   0.86755868   -797.06613            1   -797.19104 
2170 0.00020514095 0.00013606073 4.6224076e-09 3.9394307e-09 0.00012378725     0.402012   0.57925207    3.9600268            0    -797.0138    0.1568358   -796.91265   0.31366687   -796.65876   0.47048942   -796.61178   0.60280297   -796.70035   0.73515578    -796.8648   0.86755902   -797.06613            1   -797.19104 
2171 0.00020396395 0.00013527312 5.0276067e-10 2.741499e-10 0.00012311533   0.40201197   0.57925204    3.9600277            0    -797.0138   0.15683585   -796.91265   0.31366695   -796.65876    0.4704895   -796.61178   0.60280342   -796.70035   0.73515635    -796.8648   0.86755941   -797.06613            1   -797.19104 
2172 0.00020266173 0.0001344017 4.3818017e-10 1.3663624e-10 0.00012237289   0.40201194   0.57925202    3.9600287            0    -797.0138   0.15683591   -796.91265   0.31366704   -796.65876   0.47048958   -796.61178   0.60280392   -796.70035   0.73515697    -796.8648   0.86755983   -797.06613            1   -797.19104 
2173 0.00020123469 0.00013344676 4.3378258e-10 1.2817711e-10 0.00012156046   0.40201191   0.57925198    3.9600298            0    -797.0138   0.15683597   -796.91265   0.31366713   -796.65876   0.47048967   -796.61178   0.60280447   -796.70035   0.73515766    -796.8648    0.8675603   -797.06613            1   -797.19104 
2174 0.00019968328 0.00013240862 4.3124497e-10 1.266659e-10 0.00012067863   0.40201188   0.57925195     3.960031            0    -797.0138   0.15683604   -796.91265   0.31366724   -796.65877   0.47048977   -796.61178   0.60280506   -796.70035    0.7351584    -796.8648   0.86756081   -797.06614            1   -797.19104 
2175 0.00019800803 0.00013128762 4.2866539e-10 1.2577007e-10 0.00011972804   0.40201184   0.57925191    3.9600323            0    -797.0138   0.15683611   -796.91265   0.31366735   -796.65877   0.47048987   -796.61178    0.6028057   -796.70035    0.7351592    -796.8648   0.86756135   -797.06614            1   -797.19104 
2176 0.00019620948 0.00013008413 4.2595255e-10 1.2489787e-10 0.0001187094    0.4020118   0.57925187    3.9600338            0    -797.0138   0.15683618   -796.91265   0.31366746   -796.65877   0.47048998   -796.61178   0.60280638   -796.70035   0.73516006    -796.8648   0.86756194   -797.06614            1   -797.19104 
2177 0.00019428823 0.00012879856 4.2303185e-10 1.2399763e-10 0.00011762347   0.40201176   0.57925183    3.9600353            0    -797.0138   0.15683626   -796.91265   0.31366758   -796.65877    0.4704901   -796.61178   0.60280711   -796.70035   0.73516098    -796.8648   0.86756257   -797.06614            1   -797.19104 
2178 0.00019224493 0.00012743134 4.199508e-10 1.2304773e-10 0.00011647105   0.40201172   0.57925179    3.9600368            0    -797.0138   0.15683634   -796.91265   0.31366771   -796.65877   0.47049021   -796.61178   0.60280789   -796.70035   0.73516195    -796.8648   0.86756323   -797.06614            1   -797.19104 
2179 0.00019008025 0.00012598295 4.1668182e-10 1.2207411e-10 0.00011525303   0.40201167   0.57925174    3.9600385            0    -797.0138   0.15683643   -796.91265   0.31366784   -796.65877   0.47049034   -796.61178    0.6028087   -796.70035   0.73516298   -796.86481   0.86756394   -797.06614            1   -797.19104 
2180 0.00018779495 0.00012445386 4.1322356e-10 1.2100874e-10 0.00011397033   0.40201162    0.5792517    3.9600403            0    -797.0138   0.15683652   -796.91265   0.31366797   -796.65877   0.47049046   -796.61178   0.60280956   -796.70035   0.73516406   -796.86481   0.86756468   -797.06614            1   -797.19104 
2181 0.00018538979 0.00012284461 4.0957054e-10 1.1995186e-10 0.00011262392   0.40201157   0.57925165    3.9600422            0    -797.0138    0.1568366   -796.91265   0.31366811   -796.65877   0.47049059   -796.61178   0.60281046   -796.70035    0.7351652   -796.86481   0.86756546   -797.06614            1   -797.19104 
2182 0.00018286559 0.00012115576 4.0577994e-10 1.1891518e-10 0.00011121486   0.40201152   0.57925159    3.9600442            0    -797.0138    0.1568367   -796.91265   0.31366825   -796.65877   0.47049072   -796.61178    0.6028114   -796.70036   0.73516639   -796.86481   0.86756628   -797.06615            1   -797.19104 
2183 0.00018022322 0.00011938789 4.0195001e-10 1.1813444e-10 0.00010974423   0.40201147   0.57925154    3.9600463            0    -797.0138   0.15683679   -796.91265   0.31366839   -796.65877   0.47049085   -796.61178   0.60281238   -796.70036   0.73516764   -796.86481   0.86756713   -797.06615            1   -797.19104 
2184 0.00017746358 0.0001175416 3.9844654e-10 1.1849565e-10 0.0001082132   0.40201141   0.57925148    3.9600484            0    -797.0138   0.15683688   -796.91265   0.31366853   -796.65877   0.47049098   -796.61178    0.6028134   -796.70036   0.73516894   -796.86481   0.86756802   -797.06615            1   -797.19104 
2185 0.00017458763 0.00011561756 3.9724198e-10 1.2406451e-10 0.00010662296   0.40201135   0.57925143    3.9600507            0    -797.0138   0.15683697   -796.91265   0.31366868   -796.65877   0.47049111   -796.61178   0.60281446   -796.70036   0.73517029   -796.86482   0.86756895   -797.06615            1   -797.19104 
2186 0.00017159636 0.00011361641 4.0891072e-10 1.5269923e-10 0.00010497478   0.40201129   0.57925137     3.960053            0    -797.0138   0.15683707   -796.91265   0.31366882   -796.65877   0.47049124   -796.61178   0.60281555   -796.70036   0.73517169   -796.86482   0.86756991   -797.06615            1   -797.19104 
2187 0.0001684908 0.00011153889 4.9048454e-10 2.6488618e-10 0.00010326999   0.40201123   0.57925131    3.9600555            0    -797.0138   0.15683716   -796.91265   0.31366896   -796.65877   0.47049137   -796.61178   0.60281668   -796.70036   0.73517313   -796.86482   0.86757091   -797.06615            1   -797.19104 
2188 0.00016527204 0.00010938564 8.7292841e-10 6.1593043e-10 0.00010150998   0.40201117   0.57925124     3.960058            0    -797.0138   0.15683725   -796.91265   0.31366909   -796.65877   0.47049149   -796.61178   0.60281785   -796.70036   0.73517463   -796.86482   0.86757194   -797.06616            1   -797.19104 
2189 0.00016194116 0.00010715766 2.2026926e-09 1.643666e-09 9.9696171e-05   0.40201111   0.57925118    3.9600606            0    -797.0138   0.15683734   -796.91265   0.31366922   -796.65877   0.47049161   -796.61178   0.60281904   -796.70037   0.73517618   -796.86482   0.86757301   -797.06616            1   -797.19104 
2190 0.00015849947 0.00010485506 6.4205056e-09 4.7514435e-09 9.7830072e-05   0.40201104   0.57925112    3.9600633            0    -797.0138   0.15683742   -796.91265   0.31366935   -796.65877   0.47049173   -796.61178   0.60282027   -796.70037   0.73517777   -796.86483   0.86757411   -797.06616            1   -797.19104 
2191 0.00015494811 0.00010248088 2.0214065e-08 1.469584e-08 9.5913515e-05   0.40201098   0.57925105    3.9600661            0    -797.0138    0.1568375   -796.91265   0.31366947   -796.65877   0.47049183   -796.61178   0.60282153   -796.70037    0.7351794   -796.86483   0.86757524   -797.06616            1   -797.19104 
2192 0.00015129311 0.00010003073 6.7893522e-08 4.8446518e-08 9.3950209e-05   0.40201091   0.57925098     3.960069            0    -797.0138   0.15683758   -796.91265   0.31366959   -796.65877   0.47049193   -796.61178   0.60282281   -796.70037   0.73518108   -796.86483    0.8675764   -797.06616            1   -797.19104 
2193 0.00014757721 9.7546606e-05 2.4043886e-07 1.684056e-07 9.1973093e-05   0.40201085   0.57925092     3.960072            0    -797.0138   0.15683765   -796.91265   0.31366969   -796.65877   0.47049202   -796.61178   0.60282412   -796.70037   0.73518278   -796.86483   0.86757759   -797.06617            1   -797.19104 
2194 0.00023621016 9.5182905e-05 7.9393053e-07 5.4562713e-07 9.0332969e-05   0.40201078   0.57925086    3.9600747            0    -797.0138   0.15683771   -796.91265   0.31366977   -796.65877   0.47049209   -796.61178   0.60282531   -796.70037   0.73518436   -796.86483   0.86757868   -797.06617            1   -797.19104 
2195 0.00017527544 9.4375647e-05 5.0815653e-07 3.3628749e-07 8.9517984e-05   0.40201076   0.57925084    3.9600757            0    -797.0138   0.15683773   -796.91265    0.3136698   -796.65877   0.47049211   -796.61178   0.60282576   -796.70037   0.73518495   -796.86484   0.86757909   -797.06617            1   -797.19104 
2196 0.0001424596 9.4118949e-05 2.6971265e-07 1.807778e-07 8.9254393e-05   0.40201076   0.57925083     3.960076            0    -797.0138   0.15683773   -796.91265   0.31366981   -796.65877   0.47049212   -796.61178   0.60282589   -796.70037   0.73518511   -796.86484    0.8675792   -797.06617            1   -797.19104 
2197 0.00014194109 9.3782921e-05 1.0035342e-07 6.8905251e-08 8.8970848e-05   0.40201075   0.57925082    3.9600764            0    -797.0138   0.15683774   -796.91265   0.31366982   -796.65877   0.47049212   -796.61178   0.60282605   -796.70037   0.73518534   -796.86484   0.86757936   -797.06617            1   -797.19104 
2198 0.00014134195 9.3381135e-05 2.3714255e-08 1.7039915e-08 8.8651776e-05   0.40201074   0.57925081    3.9600769            0    -797.0138   0.15683775   -796.91265   0.31366983   -796.65877   0.47049213   -796.61178   0.60282626   -796.70037    0.7351856   -796.86484   0.86757955   -797.06617            1   -797.19104 
2199 0.0001406534 9.2919786e-05 2.7427423e-09 2.1725673e-09 8.8287243e-05   0.40201073    0.5792508    3.9600774            0    -797.0138   0.15683776   -796.91265   0.31366984   -796.65878   0.47049214   -796.61178   0.60282649   -796.70037   0.73518592   -796.86484   0.86757976   -797.06617            1   -797.19104 
2200 0.00013987397 9.2398447e-05 3.4075173e-10 1.0246918e-10 8.7875259e-05   0.40201071   0.57925079     3.960078            0    -797.0138   0.15683777   -796.91265   0.31366985   -796.65878   0.47049215   -796.61178   0.60282676   -796.70037   0.73518627   -796.86484   0.86758001   -797.06617            1   -797.19104 
2201 0.00013900391 9.1816643e-05 3.3759708e-10 9.7977446e-11 8.7415931e-05    0.4020107   0.57925077    3.9600787            0    -797.0138   0.15683778   -796.91265   0.31366987   -796.65878   0.47049217   -796.61178   0.60282705   -796.70038   0.73518666   -796.86484   0.86758028   -797.06617            1   -797.19104 
2202 0.00013804356 9.1174463e-05 3.3605181e-10 9.7495339e-11 8.6909594e-05   0.40201068   0.57925076    3.9600795            0    -797.0138   0.15683779   -796.91265   0.31366989   -796.65878   0.47049218   -796.61178   0.60282738   -796.70038   0.73518709   -796.86484   0.86758058   -797.06617            1   -797.19104 
2203 0.00013699326 9.0472145e-05 3.3437141e-10 9.6988554e-11 8.635663e-05   0.40201067   0.57925074    3.9600803            0    -797.0138    0.1568378   -796.91265    0.3136699   -796.65878   0.47049219   -796.61178   0.60282773   -796.70038   0.73518756   -796.86484   0.86758091   -797.06617            1   -797.19104 
2204 0.0001358534 8.9709951e-05 3.3256693e-10 9.6437448e-11 8.5757458e-05   0.40201065   0.57925072    3.9600812            0    -797.0138   0.15683781   -796.91265   0.31366992   -796.65878    0.4704922   -796.61178   0.60282812   -796.70038   0.73518808   -796.86484   0.86758127   -797.06617            1   -797.19104 
2205 0.00013462441 8.888817e-05 3.3060213e-10 9.5817301e-11 8.5112533e-05   0.40201063    0.5792507    3.9600822            0    -797.0138   0.15683783   -796.91265   0.31366993   -796.65878   0.47049221   -796.61178   0.60282853   -796.70038   0.73518863   -796.86484   0.86758165   -797.06617            1   -797.19104 
2206 0.00013330676 8.8007114e-05 3.2848237e-10 9.5185545e-11 8.4422351e-05   0.40201061   0.57925068    3.9600833            0    -797.0138   0.15683784   -796.91265   0.31366995   -796.65878   0.47049222   -796.61178   0.60282897   -796.70038   0.73518922   -796.86484   0.86758207   -797.06618            1   -797.19104 
2207 0.00013190093 8.7067122e-05 3.2621611e-10 9.4508484e-11 8.3687444e-05   0.40201058   0.57925066    3.9600844            0    -797.0138   0.15683785   -796.91265   0.31366996   -796.65878   0.47049223   -796.61178   0.60282944   -796.70038   0.73518985   -796.86484   0.86758251   -797.06618            1   -797.19104 
2208 0.00013040749 8.6068558e-05 3.2384204e-10 9.3789392e-11 8.290838e-05   0.40201056   0.57925064    3.9600856            0    -797.0138   0.15683786   -796.91265   0.31366998   -796.65878   0.47049224   -796.61178   0.60282994   -796.70038   0.73519051   -796.86484   0.86758297   -797.06618            1   -797.19104 
2209  0.000128827 8.5011813e-05 3.2128623e-10 9.3026752e-11 8.2085766e-05   0.40201054   0.57925061    3.9600868            0    -797.0138   0.15683787   -796.91265   0.31366999   -796.65878   0.47049224   -796.61178   0.60283046   -796.70038   0.73519122   -796.86484   0.86758346   -797.06618            1   -797.19104 
2210 0.00012716007 8.3897302e-05 3.1859715e-10 9.2217945e-11 8.1220246e-05   0.40201051   0.57925059    3.9600881            0    -797.0138   0.15683788   -796.91265      0.31367   -796.65878   0.47049224   -796.61178   0.60283101   -796.70038   0.73519196   -796.86485   0.86758398   -797.06618            1   -797.19104 
2211 0.00012540737 8.2725466e-05 3.1574938e-10 9.1374015e-11 8.0312497e-05   0.40201048   0.57925056    3.9600895            0    -797.0138   0.15683789   -796.91265   0.31367001   -796.65878   0.47049224   -796.61179   0.60283158   -796.70038   0.73519273   -796.86485   0.86758453   -797.06618            1   -797.19104 
2212 0.00012356959 8.1496772e-05 3.127734e-10 9.0492292e-11 7.9363235e-05   0.40201046   0.57925053     3.960091            0    -797.0138    0.1568379   -796.91265   0.31367001   -796.65878   0.47049224   -796.61179   0.60283218   -796.70038   0.73519355   -796.86485    0.8675851   -797.06618            1   -797.19104 
2213 0.00012164745 8.0211714e-05 3.0966239e-10 8.9577456e-11 7.8373209e-05   0.40201043    0.5792505    3.9600925            0    -797.0138    0.1568379   -796.91265   0.31367001   -796.65878   0.47049223   -796.61179   0.60283281   -796.70038    0.7351944   -796.86485   0.86758569   -797.06618            1   -797.19104 
2214 0.00011964173 7.8870808e-05 3.0647182e-10 8.8761118e-11 7.7343206e-05    0.4020104   0.57925047    3.9600941            0    -797.0138    0.1568379   -796.91266   0.31367001   -796.65878   0.47049222   -796.61179   0.60283346   -796.70038   0.73519528   -796.86485   0.86758632   -797.06618            1   -797.19104 
2215 0.00011755324 7.7474603e-05 3.0330206e-10 8.8480174e-11 7.6274043e-05   0.40201037   0.57925044    3.9600958            0    -797.0138    0.1568379   -796.91266      0.31367   -796.65878    0.4704922   -796.61179   0.60283413   -796.70038   0.73519619   -796.86485   0.86758696   -797.06618            1   -797.19104 
2216 0.00011538281 7.6023667e-05 3.0093964e-10 9.0976355e-11 7.5166573e-05   0.40201034   0.57925041    3.9600975            0    -797.0138    0.1568379   -796.91266   0.31366998   -796.65878   0.47049218   -796.61179   0.60283482   -796.70038   0.73519714   -796.86485   0.86758763   -797.06619            1   -797.19104 
2217 0.00011313135 7.4518602e-05 3.0405028e-10 1.082581e-10 7.4021679e-05   0.40201031   0.57925038    3.9600993            0    -797.0138   0.15683789   -796.91266   0.31366996   -796.65878   0.47049215   -796.61179   0.60283553   -796.70039   0.73519813   -796.86485   0.86758832   -797.06619            1   -797.19104 
2218 0.00011079978 7.2960028e-05 3.4205724e-10 1.8856516e-10 7.2840278e-05   0.40201028   0.57925035    3.9601012            0    -797.0138   0.15683788   -796.91266   0.31366993   -796.65878   0.47049211   -796.61179   0.60283626   -796.70039   0.73519914   -796.86485   0.86758904   -797.06619            1   -797.19104 
2219 0.00010838906 7.1348615e-05 5.6325448e-10 4.6712168e-10 7.1623312e-05   0.40201025   0.57925032    3.9601031            0    -797.0138   0.15683786   -796.91266    0.3136699   -796.65878   0.47049206   -796.61179   0.60283701   -796.70039   0.73520018   -796.86486   0.86758977   -797.06619            1   -797.19104 
2220 0.00010590023   6.9685e-05 1.4393451e-09 1.3461354e-09 7.0371761e-05   0.40201021   0.57925029    3.9601051            0    -797.0138   0.15683784   -796.91266   0.31366985   -796.65878     0.470492   -796.61179   0.60283778   -796.70039   0.73520126   -796.86486   0.86759053   -797.06619            1   -797.19104 
2221 0.00010333429 6.7970036e-05 4.4140237e-09 4.2043931e-09 6.908661e-05   0.40201018   0.57925026    3.9601072            0    -797.0138   0.15683781   -796.91266    0.3136698   -796.65878   0.47049194   -796.61179   0.60283857   -796.70039   0.73520236   -796.86486   0.86759131   -797.06619            1   -797.19104 
2222 0.00010069262 6.6204037e-05 1.4700893e-08 1.4048399e-08 6.7768948e-05   0.40201015   0.57925022    3.9601093            0    -797.0138   0.15683777   -796.91266   0.31366973   -796.65878   0.47049186   -796.61179   0.60283937   -796.70039   0.73520349   -796.86486   0.86759212   -797.06619            1   -797.19104 
2223 9.7976664e-05 6.4389619e-05 5.2319576e-08 5.0063425e-08 6.6419902e-05   0.40201012   0.57925019    3.9601115            0    -797.0138   0.15683773   -796.91266   0.31366966   -796.65878   0.47049177   -796.61179   0.60284019   -796.70039   0.73520464   -796.86486   0.86759294    -797.0662            1   -797.19104 
2224 9.5205385e-05 6.2525691e-05 1.9788982e-07 1.895227e-07 6.5044511e-05   0.40201009   0.57925016    3.9601138            0    -797.0138   0.15683768   -796.91266   0.31366957   -796.65879   0.47049167   -796.61179   0.60284101   -796.70039   0.73520582   -796.86486   0.86759378    -797.0662            1   -797.19104 
2225 0.0001226676 6.0697863e-05 7.6233242e-07 7.3057642e-07 6.3694896e-05   0.40201006   0.57925013     3.960116            0    -797.0138   0.15683763   -796.91266   0.31366947   -796.65879   0.47049156   -796.61179   0.60284182   -796.70039   0.73520698   -796.86487   0.86759461    -797.0662            1   -797.19104 
2226 0.00022233497 5.9526113e-05 1.5752189e-06 1.5104796e-06 6.2892551e-05   0.40201004   0.57925011    3.9601174            0    -797.0138   0.15683759   -796.91266    0.3136694   -796.65879   0.47049148   -796.61179   0.60284232   -796.70039   0.73520769   -796.86487   0.86759512    -797.0662            1   -797.19104 
2227 0.0002222252 5.9525929e-05 1.574369e-06 1.5096644e-06 6.2892364e-05   0.40201004   0.57925011    3.9601174            0    -797.0138   0.15683759   -796.91266    0.3136694   -796.65879   0.47049148   -796.61179   0.60284232   -796.70039   0.73520769   -796.86487   0.86759512    -797.0662            1   -797.19104 
