LAMMPS (12 Dec 2018)
Processor partition = 5
units         metal
atom_style    atomic
neighbor      1.0 bin
neigh_modify  every 1 delay 0 check yes

boundary        p p p
atom_modify map array sort 0 0.0
variable	u uloop 8

read_data   initial.lammps
  orthogonal box = (0 0 0) to (10.0025 12.3537 10.615)
  2 by 4 by 3 MPI processor grid
  reading atoms ...
  127 atoms
pair_style  hybrid/overlay nnp3v nnp3v_vf
pair_coeff  * * nnp3v lammps-force.nnp Li P O
Reading potential file lammps-force.nnp with DATE: 20201105
pair_coeff  * * nnp3v_vf lammps_rot.nnp Li P O
Reading potential file lammps_rot.nnp with DATE: 20211226
min_style   quickmin
minimize    1.0e-6 1.0e-4 1000 10000
Neighbor list info ...
  update every 1 steps, delay 0 steps, check yes
  max neighbors/atom: 2000, page size: 100000
  master list distance cutoff = 8
  ghost atom cutoff = 8
  binsize = 4, bins = 3 4 3
  2 neighbor lists, perpetual/occasional/extra = 2 0 0
  (1) pair nnp3v, perpetual
      attributes: full, newton on
      pair build: full/bin/atomonly
      stencil: full/bin/3d
      bin: standard
  (2) pair nnp3v_vf, perpetual, copy from (1)
      attributes: full, newton on
      pair build: copy
      stencil: none
      bin: none
Per MPI rank memory allocation (min/avg/max) = 3.111 | 3.226 | 3.362 Mbytes
Step Temp E_pair E_mol TotEng Press 
       0            0   -796.79482            0   -796.79482    13324.103 
      24   0.66844098   -796.99042            0   -796.97954    13893.519 
Loop time of 14.4553 on 24 procs for 24 steps with 127 atoms

98.4% CPU use with 24 MPI tasks x no OpenMP threads

Minimization stats:
  Stopping criterion = energy tolerance
  Energy initial, next-to-last, final = 
        -796.794816724     -796.990398619     -796.990424995
  Force two-norm initial, final = 1.98977 0.177561
  Force max component initial, final = 0.330078 0.036579
  Final line search alpha, max atom move = 0 0
  Iterations, force evaluations = 24 24

MPI task timing breakdown:
Section |  min time  |  avg time  |  max time  |%varavg| %total
---------------------------------------------------------------
Pair    | 6.0029     | 10.674     | 14.453     |  77.0 | 73.84
Neigh   | 0          | 0          | 0          |   0.0 |  0.00
Comm    | 0.0016825  | 3.7804     | 8.4512     | 129.3 | 26.15
Output  | 0          | 0          | 0          |   0.0 |  0.00
Modify  | 0          | 0          | 0          |   0.0 |  0.00
Other   |            | 0.001114   |            |       |  0.01

Nlocal:    5.29167 ave 7 max 3 min
Histogram: 4 0 0 0 0 9 0 7 0 4
Nghost:    759.125 ave 797 max 714 min
Histogram: 7 1 0 0 0 2 6 0 0 8
Neighs:    0 ave 0 max 0 min
Histogram: 24 0 0 0 0 0 0 0 0 0
FullNghs:  1068 ave 1413 max 614 min
Histogram: 4 0 0 0 5 4 0 7 0 4

Total # of neighbors = 25632
Ave neighs/atom = 201.827
Neighbor list builds = 0
Dangerous builds = 0

reset_timestep	0

#timestep   0.001
#velocity   all create 1000 87287

dump   1 all atom 1 dump.neb.$u
dump   1 all atom 1 dump.neb.6
fix    2 all neb 1.0 parallel neigh
dump   2 all atom 1 test.dump

thermo          1
neb 0.00000000001 0.0 10000 5000 1 final final.lammps
Per MPI rank memory allocation (min/avg/max) = 5.112 | 5.237 | 5.362 Mbytes
Step Temp E_pair E_mol TotEng Press 
       0            0   -795.01854            0   -795.01854    18345.765 
       1    4.0247227   -795.01854            0   -794.95299    18399.144 
       2    17.412252   -795.14647            0   -794.86288    18405.873 
       3     41.40783   -795.38102            0   -794.70662    18410.433 
       4    76.461577   -795.67374            0   -794.42843    18467.745 
       5    114.25524   -795.95464            0   -794.09379    18481.854 
       6    135.21564    -796.1738            0   -793.97157    18108.144 
       7    131.84785   -796.32924            0   -794.18186    17274.193 
       8    125.27449   -796.43881            0   -794.39849    16555.674 
       9    123.45199   -796.51873            0   -794.50809    16223.344 
      10    130.46031    -796.5799            0   -794.45512    16251.855 
      11    152.05824   -796.59623            0   -794.11969    16274.304 
      12    3.0860884   -796.60802            0   -796.55775    14312.045 
      13     3.976497   -796.61946            0    -796.5547    14348.215 
      14    4.2705494   -796.62901            0   -796.55945    14386.331 
      15    3.4901746   -796.63627            0   -796.57943    14408.215 
      16    2.6669181   -796.64253            0   -796.59909    14412.283 
      17    2.8646707   -796.64895            0   -796.60229     14416.67 
      18    3.3906585    -796.6558            0   -796.60057    14421.032 
      19     3.975892   -796.66305            0    -796.5983    14425.056 
      20    4.5941551   -796.67066            0   -796.59584    14429.197 
      21    5.2393075   -796.67857            0   -796.59324    14433.803 
      22    5.9058039    -796.6867            0   -796.59052    14439.078 
      23    6.5873999   -796.69498            0   -796.58769    14445.045 
      24    7.2771482   -796.70337            0   -796.58485    14451.685 
      25    7.9673083   -796.71182            0   -796.58206    14459.017 
      26    8.6493607   -796.72026            0   -796.57939     14467.01 
      27    9.3141312   -796.72863            0   -796.57693    14475.551 
      28     9.952077   -796.73693            0   -796.57484    14484.607 
      29    10.553544   -796.74505            0   -796.57317    14493.924 
      30    11.108933    -796.7529            0   -796.57197    14503.532 
      31     11.60909   -796.76044            0   -796.57136    14513.313 
      32    12.046289   -796.76763            0   -796.57143    14523.222 
      33    12.415075   -796.77441            0   -796.57221    14532.981 
      34    12.710727   -796.78073            0   -796.57371    14542.889 
      35    12.934942   -796.78663            0   -796.57596    14551.245 
      36    13.083894   -796.79214            0   -796.57905    14564.913 
      37    13.205668   -796.79691            0   -796.58184    14552.901 
      38    12.328246   -796.79897            0   -796.59818    14628.534 
      39 0.0063679512   -796.79897            0   -796.79887    14465.114 
      40  0.028445536   -796.79917            0   -796.79871     14461.95 
      41  0.065861641   -796.79955            0   -796.79847     14455.67 
      42    0.1137245   -796.80004            0   -796.79819    14446.676 
      43   0.16321583   -796.80057            0   -796.79792    14435.741 
      44   0.19973476   -796.80108            0   -796.79783    14424.207 
      45   0.20495195   -796.80153            0   -796.79819    14414.282 
      46   0.18806731   -796.80197            0   -796.79891    14408.465 
      47   0.19620272   -796.80245            0   -796.79926    14406.989 
      48   0.23030913   -796.80299            0   -796.79924     14407.82 
      49   0.27293109   -796.80356            0   -796.79912    14409.394 
      50   0.31913136   -796.80418            0   -796.79898    14411.163 
      51   0.36818511   -796.80483            0   -796.79883    14413.026 
      52   0.41983115   -796.80552            0   -796.79868    14414.981 
      53    0.4738255   -796.80624            0   -796.79852     14417.03 
      54   0.52992226   -796.80698            0   -796.79835    14419.172 
      55   0.58787651   -796.80776            0   -796.79818    14421.399 
      56   0.64744112   -796.80855            0   -796.79801    14423.704 
      57   0.70837085   -796.80936            0   -796.79783    14426.077 
      58   0.77042479   -796.81019            0   -796.79764    14428.507 
      59   0.83336903   -796.81103            0   -796.79746    14430.982 
      60   0.89697729   -796.81188            0   -796.79727    14433.491 
      61   0.96103617   -796.81273            0   -796.79708    14436.021 
      62    1.0253433   -796.81359            0   -796.79689    14438.554 
      63    1.0897135   -796.81445            0    -796.7967    14441.087 
      64    1.1539611   -796.81529            0    -796.7965     14443.59 
      65     1.217944   -796.81614            0    -796.7963    14446.043 
      66    1.2815387   -796.81698            0   -796.79611    14448.436 
      67    1.3446198   -796.81782            0   -796.79592    14450.756 
      68    1.4071207   -796.81863            0   -796.79571     14452.97 
      69    1.4688943   -796.81942            0   -796.79549    14455.083 
      70    1.5300462   -796.82019            0   -796.79527    14457.029 
      71    1.5901172   -796.82094            0   -796.79504    14458.919 
      72    1.6501111   -796.82166            0   -796.79479    14460.378 
      73     1.706545   -796.82236            0   -796.79457    14462.463 
      74    1.7644492   -796.82303            0    -796.7943    14461.609 
      75    1.7341675   -796.82366            0   -796.79542    14468.948 
      76    1.1088366   -796.82395            0   -796.80589    14443.175 
      77  0.014088253   -796.82402            0   -796.82379    14430.997 
      78   0.02018022   -796.82409            0   -796.82376    14433.835 
      79  0.026251165   -796.82417            0   -796.82374     14436.67 
      80  0.031862939   -796.82425            0   -796.82373    14438.872 
      81  0.038228063   -796.82433            0   -796.82371    14440.121 
      82  0.046608084   -796.82442            0   -796.82366    14440.687 
      83  0.056438627   -796.82452            0    -796.8236    14440.937 
      84  0.067220946   -796.82463            0   -796.82353    14441.083 
      85  0.078845768   -796.82474            0   -796.82346    14441.205 
      86  0.091292049   -796.82487            0   -796.82338    14441.323 
      87   0.10453651     -796.825            0   -796.82329    14441.436 
      88   0.11854993   -796.82513            0    -796.8232    14441.542 
      89    0.1333008   -796.82528            0   -796.82311    14441.641 
      90   0.14875626   -796.82543            0   -796.82301    14441.728 
      91   0.16488235   -796.82559            0    -796.8229    14441.802 
      92   0.18164417   -796.82575            0   -796.82279    14441.859 
      93     0.199006   -796.82592            0   -796.82268    14441.896 
      94   0.21693146   -796.82609            0   -796.82256    14441.911 
      95   0.23538427   -796.82627            0   -796.82243      14441.9 
      96   0.25432715   -796.82645            0    -796.8223     14441.86 
      97   0.27372226   -796.82662            0   -796.82217     14441.79 
      98   0.29353088    -796.8268            0   -796.82202    14441.687 
      99   0.31371692   -796.82698            0   -796.82187    14441.548 
     100   0.33424142   -796.82717            0   -796.82172    14441.368 
     101   0.35506708   -796.82735            0   -796.82157    14441.145 
     102   0.37615642   -796.82754            0   -796.82141    14440.876 
     103   0.39747339   -796.82773            0   -796.82125    14440.557 
     104   0.41897919   -796.82792            0   -796.82109    14440.184 
     105   0.44063925    -796.8281            0   -796.82093    14439.757 
     106   0.46241452   -796.82829            0   -796.82076    14439.273 
     107   0.48427272   -796.82848            0   -796.82059    14438.729 
     108    0.5061498   -796.82866            0   -796.82042    14438.133 
     109    0.5279247   -796.82885            0   -796.82025    14437.449 
     110   0.54828682   -796.82903            0    -796.8201    14436.767 
     111   0.55450057   -796.82922            0   -796.82018    14435.591 
     112   0.42487321   -796.82936            0   -796.82244    14433.483 
     113  0.046704693   -796.82942            0   -796.82866    14427.637 
     114  0.026135239   -796.82945            0   -796.82903     14427.22 
     115  0.030911639   -796.82949            0   -796.82899    14427.033 
     116    0.0358533   -796.82953            0   -796.82895    14426.816 
     117  0.041129014   -796.82958            0   -796.82891    14426.581 
     118   0.04672939   -796.82962            0   -796.82886    14426.325 
     119  0.052644821   -796.82968            0   -796.82882     14426.05 
     120  0.058865096   -796.82973            0   -796.82877    14425.754 
     121  0.065379549   -796.82978            0   -796.82872    14425.437 
     122  0.072177013   -796.82984            0   -796.82867    14425.098 
     123  0.079245876    -796.8299            0   -796.82861    14424.738 
     124  0.086574108   -796.82997            0   -796.82856    14424.355 
     125  0.094149289   -796.83003            0    -796.8285    14423.949 
     126   0.10195864    -796.8301            0   -796.82844     14423.52 
     127   0.10998906   -796.83017            0   -796.82838    14423.067 
     128   0.11822715   -796.83024            0   -796.82832    14422.585 
     129   0.12665856   -796.83031            0   -796.82825    14422.078 
     130   0.13526964   -796.83039            0   -796.82818    14421.546 
     131   0.14404642   -796.83046            0   -796.82812    14420.987 
     132   0.15297463   -796.83054            0   -796.82805    14420.403 
     133    0.1620398   -796.83062            0   -796.82798    14419.792 
     134   0.17122733    -796.8307            0   -796.82791    14419.153 
     135   0.18052273   -796.83078            0   -796.82784    14418.488 
     136   0.18991107   -796.83086            0   -796.82777    14417.796 
     137   0.19937671   -796.83095            0    -796.8277    14417.077 
     138   0.20890631   -796.83103            0   -796.82763    14416.328 
     139   0.21848066   -796.83112            0   -796.82757    14415.552 
     140   0.22809269   -796.83121            0    -796.8275    14414.745 
     141   0.23766405   -796.83131            0   -796.82744    14413.913 
     142   0.24692963    -796.8314            0   -796.82738    14413.043 
     143   0.25141452    -796.8315            0    -796.8274    14412.114 
     144   0.20682984   -796.83157            0    -796.8282    14410.622 
     145  0.029638337   -796.83161            0   -796.83112    14407.949 
     146 0.0087682569   -796.83162            0   -796.83148    14407.524 
     147  0.010555293   -796.83164            0   -796.83147    14407.353 
     148  0.012447833   -796.83166            0   -796.83146    14407.163 
     149  0.014498043   -796.83168            0   -796.83144    14406.957 
     150  0.016693681    -796.8317            0   -796.83143    14406.735 
     151   0.01903081   -796.83173            0   -796.83142    14406.496 
     152  0.021505834   -796.83175            0    -796.8314     14406.24 
     153  0.024114966   -796.83178            0   -796.83139    14405.968 
     154  0.026854258   -796.83181            0   -796.83137     14405.68 
     155  0.029719556   -796.83184            0   -796.83136    14405.375 
     156  0.032706391   -796.83188            0   -796.83134    14405.053 
     157  0.035810187   -796.83191            0   -796.83133    14404.716 
     158  0.039026187   -796.83195            0   -796.83131    14404.362 
     159  0.042349471   -796.83198            0   -796.83129    14403.992 
     160  0.045774959   -796.83202            0   -796.83128    14403.605 
     161  0.049297465   -796.83206            0   -796.83126    14403.203 
     162  0.052911559   -796.83211            0   -796.83124    14402.784 
     163  0.056611735   -796.83215            0   -796.83123    14402.349 
     164  0.060392351    -796.8322            0   -796.83121    14401.898 
     165  0.064247775   -796.83224            0    -796.8312     14401.43 
     166  0.068172179   -796.83229            0   -796.83118    14400.948 
     167  0.072159685   -796.83234            0   -796.83117    14400.449 
     168  0.076204167   -796.83239            0   -796.83115    14399.936 
     169  0.080299937   -796.83245            0   -796.83114    14399.407 
     170  0.084440068    -796.8325            0   -796.83112    14398.863 
     171  0.088619755   -796.83256            0   -796.83111    14398.306 
     172  0.092829724   -796.83261            0    -796.8311    14397.733 
     173  0.097070537   -796.83267            0   -796.83109    14397.147 
     174   0.10131725   -796.83273            0   -796.83108    14396.544 
     175   0.10559222   -796.83279            0   -796.83107    14395.938 
     176   0.10960043   -796.83284            0   -796.83106    14395.273 
     177    0.1117564    -796.8329            0   -796.83108    14394.689 
     178  0.090689404   -796.83294            0   -796.83146    14393.542 
     179  0.012903105   -796.83297            0   -796.83276    14392.527 
     180 0.0031046998   -796.83297            0   -796.83292    14392.251 
     181 0.0040557504   -796.83298            0   -796.83292    14392.122 
     182 0.0048706323   -796.83299            0   -796.83292    14391.991 
     183 0.0057373769   -796.83301            0   -796.83291    14391.852 
     184 0.0066697085   -796.83302            0   -796.83291    14391.701 
     185 0.0076670321   -796.83303            0   -796.83291    14391.539 
     186 0.0087280914   -796.83305            0   -796.83291    14391.366 
     187 0.0098513879   -796.83306            0    -796.8329    14391.181 
     188  0.011035308   -796.83308            0    -796.8329    14390.985 
     189  0.012278146    -796.8331            0    -796.8329    14390.777 
     190  0.013578108   -796.83312            0    -796.8329    14390.558 
     191  0.014933318   -796.83314            0    -796.8329    14390.328 
     192  0.016341809   -796.83316            0   -796.83289    14390.087 
     193  0.017801545   -796.83318            0   -796.83289    14389.835 
     194  0.019310411   -796.83321            0   -796.83289    14389.573 
     195  0.020866219   -796.83323            0   -796.83289    14389.299 
     196  0.022466718   -796.83325            0   -796.83289    14389.015 
     197  0.024109594   -796.83328            0   -796.83289    14388.721 
     198  0.025792463   -796.83331            0   -796.83289    14388.416 
     199  0.027512883   -796.83334            0   -796.83289    14388.101 
     200   0.02926836   -796.83337            0   -796.83289    14387.776 
     201  0.031056352    -796.8334            0   -796.83289    14387.442 
     202  0.032874266   -796.83343            0   -796.83289    14387.097 
     203  0.034719471   -796.83346            0   -796.83289    14386.743 
     204  0.036589293   -796.83349            0    -796.8329     14386.38 
     205  0.038481031   -796.83353            0    -796.8329    14386.008 
     206  0.040391938   -796.83356            0    -796.8329    14385.626 
     207  0.042319275    -796.8336            0   -796.83291    14385.236 
     208   0.04426013   -796.83364            0   -796.83291    14384.838 
     209  0.046211724   -796.83367            0   -796.83292    14384.431 
     210  0.048168489   -796.83371            0   -796.83293    14384.015 
     211  0.050108885   -796.83375            0   -796.83294    14383.597 
     212  0.051794813    -796.8338            0   -796.83295    14383.149 
     213  0.050570046   -796.83384            0   -796.83301    14382.735 
     214  0.026828162   -796.83387            0   -796.83343    14381.971 
     215 0.00069670402   -796.83387            0   -796.83386     14381.62 
     216 0.0012797017   -796.83388            0   -796.83386    14381.594 
     217 0.0018213469   -796.83389            0   -796.83386    14381.535 
     218 0.0022089779   -796.83389            0   -796.83386    14381.455 
     219 0.0026051503    -796.8339            0   -796.83386    14381.365 
     220 0.0030315839   -796.83391            0   -796.83386    14381.266 
     221 0.0034881863   -796.83392            0   -796.83387     14381.16 
     222 0.0039743165   -796.83394            0   -796.83387    14381.047 
     223 0.0044893019   -796.83395            0   -796.83387    14380.926 
     224 0.0050324293   -796.83396            0   -796.83388    14380.798 
     225 0.0056029443   -796.83397            0   -796.83388    14380.662 
     226 0.0062000531   -796.83399            0   -796.83389    14380.519 
     227 0.0068229148   -796.83401            0   -796.83389    14380.368 
     228 0.0074706697   -796.83402            0    -796.8339     14380.21 
     229 0.0081424117   -796.83404            0   -796.83391    14380.045 
     230  0.008837196   -796.83406            0   -796.83391    14379.873 
     231 0.0095540451   -796.83408            0   -796.83392    14379.695 
     232  0.010291953    -796.8341            0   -796.83393    14379.509 
     233  0.011049877   -796.83412            0   -796.83394    14379.317 
     234  0.011826752   -796.83414            0   -796.83395    14379.118 
     235  0.012621483   -796.83416            0   -796.83396    14378.913 
     236  0.013432945   -796.83419            0   -796.83397    14378.702 
     237  0.014259996   -796.83421            0   -796.83398    14378.484 
     238  0.015101462   -796.83423            0   -796.83399     14378.26 
     239  0.015956155   -796.83426            0     -796.834     14378.03 
     240  0.016822856   -796.83429            0   -796.83401    14377.794 
     241  0.017700352   -796.83431            0   -796.83403    14377.553 
     242    0.0185873   -796.83434            0   -796.83404    14377.306 
     243  0.019482569   -796.83437            0   -796.83405    14377.053 
     244   0.02038462    -796.8344            0   -796.83407    14376.797 
     245  0.021293001   -796.83443            0   -796.83409    14376.529 
     246  0.022204012   -796.83446            0    -796.8341    14376.276 
     247  0.023125138    -796.8345            0   -796.83412    14375.957 
     248  0.024041573   -796.83453            0   -796.83414    14375.836 
     249  0.025189781   -796.83457            0   -796.83416    14375.017 
     250  0.026799095   -796.83458            0   -796.83415    14376.484 
     251 0.0087462637    -796.8346            0   -796.83446    14374.634 
     252 0.0013743919   -796.83461            0   -796.83459    14374.735 
     253 0.0014123634   -796.83462            0   -796.83459    14374.673 
     254 0.0016291002   -796.83463            0    -796.8346    14374.605 
     255 0.0018601653   -796.83464            0   -796.83461    14374.532 
     256  0.002105256   -796.83465            0   -796.83461    14374.454 
     257 0.0023640274   -796.83466            0   -796.83462    14374.371 
     258 0.0026361298   -796.83467            0   -796.83462    14374.284 
     259 0.0029211907   -796.83468            0   -796.83463    14374.191 
     260 0.0032188202   -796.83469            0   -796.83464    14374.094 
     261 0.0035286097    -796.8347            0   -796.83465    14373.992 
     262 0.0038501331   -796.83472            0   -796.83465    14373.886 
     263 0.0041829475   -796.83473            0   -796.83466    14373.775 
     264 0.0045265936   -796.83475            0   -796.83467    14373.659 
     265 0.0048805958   -796.83476            0   -796.83468     14373.54 
     266 0.0052444643   -796.83478            0   -796.83469    14373.415 
     267 0.0056176939    -796.8348            0    -796.8347    14373.287 
     268 0.0059997665   -796.83481            0   -796.83472    14373.155 
     269 0.0063901499   -796.83483            0   -796.83473    14373.018 
     270 0.0067883019   -796.83485            0   -796.83474    14372.878 
     271 0.0071936662   -796.83487            0   -796.83475    14372.733 
     272 0.0076056824   -796.83489            0   -796.83477    14372.585 
     273 0.0080237697   -796.83491            0   -796.83478    14372.433 
     274 0.0084473547   -796.83493            0   -796.83479    14372.277 
     275 0.0088758071   -796.83495            0   -796.83481    14372.118 
     276 0.0093086026   -796.83498            0   -796.83482    14371.954 
     277 0.0097449311     -796.835            0   -796.83484     14371.79 
     278  0.010184732   -796.83502            0   -796.83486    14371.615 
     279  0.010625907   -796.83505            0   -796.83487    14371.459 
     280  0.011073501   -796.83507            0   -796.83489    14371.234 
     281  0.011523019    -796.8351            0   -796.83491    14371.218 
     282   0.01215504   -796.83512            0   -796.83493    14370.499 
     283  0.013513364   -796.83514            0   -796.83492    14371.977 
     284 0.0048424613   -796.83515            0   -796.83507    14370.379 
     285 0.0007058732   -796.83516            0   -796.83515    14370.515 
     286 0.0007052014   -796.83516            0   -796.83515    14370.476 
     287 0.00081325071   -796.83517            0   -796.83516    14370.431 
     288 0.00092841795   -796.83518            0   -796.83516    14370.384 
     289 0.0010505708   -796.83519            0   -796.83517    14370.332 
     290   0.00117954   -796.83519            0   -796.83517    14370.278 
     291 0.0013151532    -796.8352            0   -796.83518    14370.221 
     292 0.0014572268   -796.83521            0   -796.83519     14370.16 
     293 0.0016055687   -796.83522            0    -796.8352    14370.097 
     294 0.0017599772   -796.83523            0    -796.8352     14370.03 
     295 0.0019202426   -796.83524            0   -796.83521    14369.961 
     296 0.0020861462   -796.83525            0   -796.83522    14369.888 
     297 0.0022574614   -796.83527            0   -796.83523    14369.813 
     298 0.0024339536   -796.83528            0   -796.83524    14369.735 
     299  0.002615381   -796.83529            0   -796.83525    14369.654 
     300 0.0028014945    -796.8353            0   -796.83526     14369.57 
     301 0.0029920379   -796.83532            0   -796.83527    14369.484 
     302 0.0031867485   -796.83533            0   -796.83528    14369.395 
     303 0.0033853578   -796.83535            0   -796.83529    14369.304 
     304 0.0035875902   -796.83536            0    -796.8353     14369.21 
     305 0.0037931677   -796.83538            0   -796.83532    14369.113 
     306 0.0040018018    -796.8354            0   -796.83533    14369.014 
     307 0.0042132122   -796.83541            0   -796.83534    14368.913 
     308 0.0044270882   -796.83543            0   -796.83536    14368.809 
     309 0.0046431701   -796.83545            0   -796.83537    14368.703 
     310 0.0048610592   -796.83547            0   -796.83539    14368.597 
     311 0.0050807168   -796.83548            0    -796.8354    14368.483 
     312 0.0053011534    -796.8355            0   -796.83542    14368.382 
     313 0.0055248538   -796.83552            0   -796.83543    14368.234 
     314 0.0057514409   -796.83555            0   -796.83545    14368.231 
     315 0.0060844074   -796.83557            0   -796.83547    14367.744 
     316 0.0070369597   -796.83558            0   -796.83547    14368.789 
     317 0.0034176333   -796.83559            0   -796.83554     14367.51 
     318 0.00036540721    -796.8356            0   -796.83559    14367.726 
     319 0.00026818781    -796.8356            0    -796.8356    14367.763 
     320 0.00030821962   -796.83561            0    -796.8356    14367.744 
     321 0.00035884115   -796.83561            0   -796.83561    14367.717 
     322 0.00041310005   -796.83562            0   -796.83561    14367.688 
     323 0.00047089436   -796.83562            0   -796.83562    14367.657 
     324 0.00053214746   -796.83563            0   -796.83562    14367.624 
     325 0.00059677777   -796.83564            0   -796.83563    14367.588 
     326 0.00066469888   -796.83564            0   -796.83563    14367.551 
     327 0.00073581974   -796.83565            0   -796.83564    14367.512 
     328 0.00081004473   -796.83566            0   -796.83565    14367.471 
     329 0.00088727384   -796.83567            0   -796.83565    14367.428 
     330 0.00096740274   -796.83568            0   -796.83566    14367.383 
     331  0.001050323   -796.83569            0   -796.83567    14367.336 
     332 0.0011359221    -796.8357            0   -796.83568    14367.288 
     333 0.0012240837   -796.83571            0   -796.83569    14367.237 
     334 0.0013146879   -796.83572            0   -796.83569    14367.185 
     335  0.001407611   -796.83573            0    -796.8357    14367.131 
     336 0.0015027262   -796.83574            0   -796.83571    14367.076 
     337 0.0015999033   -796.83575            0   -796.83572    14367.018 
     338 0.0016990092   -796.83576            0   -796.83573    14366.959 
     339 0.0017999078   -796.83577            0   -796.83575    14366.899 
     340 0.0019024604   -796.83579            0   -796.83576    14366.837 
     341  0.002006526    -796.8358            0   -796.83577    14366.773 
     342 0.0021119608   -796.83581            0   -796.83578    14366.708 
     343 0.0022186195   -796.83583            0   -796.83579    14366.642 
     344 0.0023263541   -796.83584            0    -796.8358    14366.574 
     345 0.0024350163   -796.83586            0   -796.83582    14366.505 
     346 0.0025444523   -796.83587            0   -796.83583    14366.435 
     347 0.0026545155   -796.83589            0   -796.83585    14366.363 
     348  0.002765009    -796.8359            0   -796.83586    14366.291 
     349 0.0028756549   -796.83592            0   -796.83587    14366.215 
     350 0.0029838972   -796.83594            0   -796.83589    14366.148 
     351  0.003065202   -796.83595            0    -796.8359    14366.045 
     352 0.0028194354   -796.83597            0   -796.83592    14366.064 
     353 0.00089529709   -796.83598            0   -796.83597    14365.824 
     354 1.5696426e-05   -796.83598            0   -796.83598    14365.834 
     355 2.5701662e-05   -796.83598            0   -796.83598    14365.856 
     356 3.9691131e-05   -796.83598            0   -796.83598    14365.872 
     357 5.5952625e-05   -796.83599            0   -796.83598    14365.879 
     358 7.2613007e-05   -796.83599            0   -796.83599    14365.876 
     359 9.0138244e-05   -796.83599            0   -796.83599    14365.866 
     360 0.00010921197   -796.83599            0   -796.83599    14365.854 
     361  0.000130008     -796.836            0     -796.836    14365.839 
     362 0.00015252546     -796.836            0     -796.836    14365.824 
     363 0.00017673728   -796.83601            0     -796.836    14365.807 
     364 0.00020261204   -796.83601            0   -796.83601    14365.789 
     365 0.00023011575   -796.83601            0   -796.83601    14365.769 
     366 0.00025921209   -796.83602            0   -796.83601    14365.749 
     367 0.00028986253   -796.83602            0   -796.83602    14365.727 
     368 0.00032202634   -796.83603            0   -796.83602    14365.704 
     369 0.00035566065   -796.83604            0   -796.83603    14365.679 
     370 0.00039072055   -796.83604            0   -796.83604    14365.654 
     371 0.00042715908   -796.83605            0   -796.83604    14365.627 
     372 0.00046492734   -796.83605            0   -796.83605      14365.6 
     373 0.00050397468   -796.83606            0   -796.83605    14365.571 
     374 0.00054424843   -796.83607            0   -796.83606    14365.541 
     375 0.00058569418   -796.83608            0   -796.83607     14365.51 
     376 0.00062825588   -796.83608            0   -796.83607    14365.478 
     377 0.00067187589   -796.83609            0   -796.83608    14365.445 
     378 0.00071649503    -796.8361            0   -796.83609    14365.411 
     379 0.00076205272   -796.83611            0    -796.8361    14365.376 
     380 0.00080848688   -796.83612            0   -796.83611     14365.34 
     381 0.00085573431   -796.83613            0   -796.83611    14365.303 
     382 0.00090373083   -796.83614            0   -796.83612    14365.266 
     383 0.00095241086   -796.83615            0   -796.83613    14365.227 
     384 0.0010017074   -796.83616            0   -796.83614    14365.188 
     385  0.001051553   -796.83617            0   -796.83615    14365.147 
     386 0.0011018793   -796.83618            0   -796.83616    14365.106 
     387 0.0011526161   -796.83619            0   -796.83617    14365.065 
     388 0.0012036971    -796.8362            0   -796.83618    14365.022 
     389 0.0012550394   -796.83621            0   -796.83619    14364.979 
     390 0.0013066086   -796.83623            0   -796.83621    14364.935 
     391 0.0013581757   -796.83624            0   -796.83622    14364.892 
     392 0.0014098368   -796.83625            0   -796.83623    14364.842 
     393  0.001456786   -796.83626            0   -796.83624    14364.816 
     394 0.0014650794   -796.83628            0   -796.83625    14364.699 
     395 0.00099738125   -796.83629            0   -796.83627    14364.847 
     396 2.511917e-05   -796.83629            0   -796.83629    14364.793 
     397 3.0908653e-05   -796.83629            0   -796.83629    14364.752 
     398 3.4001403e-05   -796.83629            0   -796.83629    14364.717 
     399 3.6829135e-05   -796.83629            0   -796.83629    14364.696 
     400 4.3111696e-05   -796.83629            0   -796.83629    14364.683 
     401 5.1699727e-05   -796.83629            0   -796.83629    14364.674 
     402 6.1358442e-05    -796.8363            0    -796.8363    14364.666 
     403 7.1833032e-05    -796.8363            0    -796.8363    14364.656 
     404 8.3086781e-05    -796.8363            0    -796.8363    14364.646 
     405 9.5103254e-05   -796.83631            0    -796.8363    14364.636 
     406 0.00010786664   -796.83631            0   -796.83631    14364.624 
     407 0.00012136021   -796.83631            0   -796.83631    14364.612 
     408 0.00013556622   -796.83632            0   -796.83632    14364.599 
     409 0.00015046592   -796.83632            0   -796.83632    14364.585 
     410 0.00016603959   -796.83633            0   -796.83632    14364.571 
     411 0.00018226657   -796.83633            0   -796.83633    14364.556 
     412 0.00019912528   -796.83634            0   -796.83633     14364.54 
     413 0.00021659326   -796.83634            0   -796.83634    14364.524 
     414 0.00023464718   -796.83635            0   -796.83634    14364.507 
     415 0.00025326288   -796.83635            0   -796.83635    14364.489 
     416 0.00027241544   -796.83636            0   -796.83635    14364.471 
     417 0.00029207913   -796.83636            0   -796.83636    14364.453 
     418 0.00031222748   -796.83637            0   -796.83636    14364.433 
     419 0.00033283337   -796.83637            0   -796.83637    14364.413 
     420 0.00035386904   -796.83638            0   -796.83638    14364.393 
     421 0.0003753061   -796.83639            0   -796.83638    14364.372 
     422 0.00039711554    -796.8364            0   -796.83639    14364.351 
     423 0.00041926785    -796.8364            0    -796.8364    14364.329 
     424 0.00044173298   -796.83641            0    -796.8364    14364.306 
     425 0.00046448043   -796.83642            0   -796.83641    14364.283 
     426 0.00048747928   -796.83643            0   -796.83642     14364.26 
     427 0.00051069823   -796.83643            0   -796.83643    14364.236 
     428 0.00053410555   -796.83644            0   -796.83643    14364.212 
     429 0.00055766948   -796.83645            0   -796.83644    14364.188 
     430 0.00058135715   -796.83646            0   -796.83645    14364.163 
     431 0.00060513707   -796.83647            0   -796.83646    14364.138 
     432 0.00062896292   -796.83648            0   -796.83647    14364.113 
     433 0.0006527261   -796.83649            0   -796.83648    14364.086 
     434 0.0006751338    -796.8365            0   -796.83648    14364.064 
     435 0.00068012435   -796.83651            0   -796.83649    14364.025 
     436 0.00048682576   -796.83651            0   -796.83651     14364.04 
     437 2.5829209e-05   -796.83652            0   -796.83652    14364.004 
     438 3.8035131e-05   -796.83652            0   -796.83652    14363.994 
     439 4.329377e-05   -796.83652            0   -796.83652    14363.989 
     440 4.9222378e-05   -796.83652            0   -796.83652    14363.982 
     441 5.5503974e-05   -796.83653            0   -796.83652    14363.975 
     442 6.212614e-05   -796.83653            0   -796.83653    14363.968 
     443 6.9079301e-05   -796.83653            0   -796.83653     14363.96 
     444 7.6354498e-05   -796.83653            0   -796.83653    14363.952 
     445 8.394205e-05   -796.83654            0   -796.83654    14363.944 
     446 9.1832007e-05   -796.83654            0   -796.83654    14363.935 
     447 0.0001000139   -796.83654            0   -796.83654    14363.926 
     448 0.00010847692   -796.83655            0   -796.83655    14363.916 
     449 0.00011720982   -796.83655            0   -796.83655    14363.906 
     450 0.00012620101   -796.83656            0   -796.83656    14363.896 
     451 0.00013543849   -796.83656            0   -796.83656    14363.885 
     452   0.00014491   -796.83657            0   -796.83656    14363.875 
     453 0.00015460282   -796.83657            0   -796.83657    14363.863 
     454 0.00016450407   -796.83658            0   -796.83657    14363.852 
     455 0.00017460032   -796.83658            0   -796.83658     14363.84 
     456 0.00018487811   -796.83659            0   -796.83658    14363.828 
     457 0.00019532264   -796.83659            0   -796.83659    14363.816 
     458 0.00020591748    -796.8366            0   -796.83659    14363.803 
     459 0.0002166312    -796.8366            0    -796.8366    14363.791 
     460 0.00022735703   -796.83661            0    -796.8366    14363.778 
     461 0.00023746176   -796.83661            0   -796.83661    14363.765 
     462 0.00024261679   -796.83662            0   -796.83662     14363.75 
     463 0.00021428266   -796.83663            0   -796.83662    14363.741 
     464 8.2927504e-05   -796.83663            0   -796.83663    14363.728 
     465 1.1899059e-05   -796.83663            0   -796.83663    14363.725 
     466 1.6625008e-05   -796.83663            0   -796.83663    14363.723 
     467 1.9558946e-05   -796.83663            0   -796.83663    14363.719 
     468 2.2675842e-05   -796.83664            0   -796.83664    14363.715 
     469  2.60081e-05   -796.83664            0   -796.83664    14363.711 
     470 2.9551355e-05   -796.83664            0   -796.83664    14363.707 
     471 3.3301027e-05   -796.83664            0   -796.83664    14363.703 
     472 3.7252246e-05   -796.83664            0   -796.83664    14363.698 
     473 4.1399869e-05   -796.83665            0   -796.83665    14363.693 
     474 4.573848e-05   -796.83665            0   -796.83665    14363.688 
     475  5.02624e-05   -796.83665            0   -796.83665    14363.682 
     476 5.4965694e-05   -796.83666            0   -796.83665    14363.676 
     477 5.984218e-05   -796.83666            0   -796.83666     14363.67 
     478 6.4885434e-05   -796.83666            0   -796.83666    14363.664 
     479 7.0088802e-05   -796.83666            0   -796.83666    14363.658 
     480 7.5445407e-05   -796.83667            0   -796.83667    14363.651 
     481 8.0948159e-05   -796.83667            0   -796.83667    14363.644 
     482 8.6589761e-05   -796.83668            0   -796.83667    14363.637 
     483 9.2362726e-05   -796.83668            0   -796.83668     14363.63 
     484 9.8259378e-05   -796.83668            0   -796.83668    14363.623 
     485 0.00010427187   -796.83669            0   -796.83669    14363.615 
     486 0.00011039219   -796.83669            0   -796.83669    14363.607 
     487 0.00011661219    -796.8367            0   -796.83669      14363.6 
     488 0.00012292353    -796.8367            0    -796.8367    14363.592 
     489 0.00012931779   -796.83671            0    -796.8367    14363.583 
     490 0.00013578635   -796.83671            0   -796.83671    14363.575 
     491 0.00014232069   -796.83672            0   -796.83671    14363.567 
     492 0.0001489115   -796.83672            0   -796.83672    14363.559 
     493 0.00015555085   -796.83673            0   -796.83672     14363.55 
     494 0.00016222148   -796.83673            0   -796.83673    14363.542 
     495 0.00016888624   -796.83674            0   -796.83673    14363.532 
     496 0.00017504593   -796.83674            0   -796.83674    14363.528 
     497 0.00017567356   -796.83675            0   -796.83674    14363.503 
     498 0.00012351324   -796.83675            0   -796.83675    14363.543 
     499 9.3386698e-06   -796.83675            0   -796.83675    14363.509 
     500 1.103423e-05   -796.83676            0   -796.83675    14363.502 
     501 1.2611402e-05   -796.83676            0   -796.83676    14363.501 
     502 1.4394156e-05   -796.83676            0   -796.83676    14363.498 
     503 1.6285899e-05   -796.83676            0   -796.83676    14363.496 
     504 1.8283892e-05   -796.83676            0   -796.83676    14363.493 
     505 2.0385185e-05   -796.83676            0   -796.83676    14363.491 
     506 2.2587178e-05   -796.83677            0   -796.83677    14363.488 
     507 2.4886948e-05   -796.83677            0   -796.83677    14363.485 
     508 2.7281545e-05   -796.83677            0   -796.83677    14363.482 
     509 2.9767817e-05   -796.83677            0   -796.83677    14363.479 
     510 3.2342544e-05   -796.83677            0   -796.83677    14363.475 
     511 3.5002332e-05   -796.83678            0   -796.83678    14363.472 
     512 3.7743723e-05   -796.83678            0   -796.83678    14363.469 
     513 4.0563084e-05   -796.83678            0   -796.83678    14363.465 
     514 4.3456756e-05   -796.83679            0   -796.83679    14363.461 
     515 4.6420858e-05   -796.83679            0   -796.83679    14363.458 
     516 4.9451595e-05   -796.83679            0   -796.83679    14363.454 
     517 5.254477e-05    -796.8368            0   -796.83679     14363.45 
     518 5.5696639e-05    -796.8368            0    -796.8368    14363.446 
     519 5.8902301e-05    -796.8368            0    -796.8368    14363.442 
     520 6.215875e-05   -796.83681            0    -796.8368    14363.438 
     521 6.5457571e-05   -796.83681            0   -796.83681    14363.434 
     522 6.8796209e-05   -796.83681            0   -796.83681    14363.429 
     523 7.2117305e-05   -796.83682            0   -796.83682    14363.427 
     524 7.5219602e-05   -796.83682            0   -796.83682    14363.416 
     525 7.6149456e-05   -796.83682            0   -796.83682     14363.43 
     526 6.3303016e-05   -796.83683            0   -796.83683    14363.382 
     527 1.8400356e-05   -796.83683            0   -796.83683    14363.428 
     528 5.2900187e-06   -796.83683            0   -796.83683    14363.411 
     529 5.6949194e-06   -796.83683            0   -796.83683    14363.409 
     530 6.6233295e-06   -796.83683            0   -796.83683    14363.408 
     531 7.6257362e-06   -796.83683            0   -796.83683    14363.406 
     532 8.6937123e-06   -796.83684            0   -796.83684    14363.405 
     533 9.8259271e-06   -796.83684            0   -796.83684    14363.404 
     534 1.1020927e-05   -796.83684            0   -796.83684    14363.402 
     535 1.2277181e-05   -796.83684            0   -796.83684    14363.401 
     536 1.3593071e-05   -796.83684            0   -796.83684    14363.399 
     537 1.4966901e-05   -796.83684            0   -796.83684    14363.398 
     538 1.6396893e-05   -796.83685            0   -796.83685    14363.396 
     539 1.7881195e-05   -796.83685            0   -796.83685    14363.395 
     540 1.9417879e-05   -796.83685            0   -796.83685    14363.393 
     541 2.1004947e-05   -796.83685            0   -796.83685    14363.391 
     542 2.2640331e-05   -796.83685            0   -796.83685    14363.389 
     543 2.4321896e-05   -796.83686            0   -796.83686    14363.387 
     544 2.6047445e-05   -796.83686            0   -796.83686    14363.385 
     545 2.7814719e-05   -796.83686            0   -796.83686    14363.383 
     546  2.96214e-05   -796.83686            0   -796.83686    14363.381 
     547 3.1465118e-05   -796.83687            0   -796.83687    14363.379 
     548 3.3343448e-05   -796.83687            0   -796.83687    14363.377 
     549 3.5253922e-05   -796.83687            0   -796.83687    14363.375 
     550 3.7194013e-05   -796.83688            0   -796.83687    14363.373 
     551 3.9161178e-05   -796.83688            0   -796.83688    14363.371 
     552 4.1152781e-05   -796.83688            0   -796.83688    14363.369 
     553 4.3166278e-05   -796.83688            0   -796.83688    14363.367 
     554 4.519875e-05   -796.83689            0   -796.83689    14363.366 
     555 4.7248149e-05   -796.83689            0   -796.83689    14363.363 
     556 4.9309446e-05   -796.83689            0   -796.83689    14363.362 
     557 5.1383034e-05    -796.8369            0    -796.8369    14363.359 
     558 5.3415714e-05    -796.8369            0    -796.8369    14363.361 
     559 5.5118975e-05   -796.83691            0    -796.8369    14363.347 
     560 5.2194405e-05   -796.83691            0   -796.83691    14363.386 
     561 2.1006481e-05   -796.83691            0   -796.83691    14363.322 
     562 8.6089506e-07   -796.83691            0   -796.83691    14363.333 
     563 1.0692645e-06   -796.83691            0   -796.83691    14363.343 
     564 1.2753646e-06   -796.83691            0   -796.83691    14363.349 
     565 1.5469851e-06   -796.83691            0   -796.83691    14363.352 
     566 1.8893843e-06   -796.83691            0   -796.83691    14363.352 
     567 2.277514e-06   -796.83691            0   -796.83691    14363.352 
     568 2.7018988e-06   -796.83691            0   -796.83691    14363.352 
     569 3.160807e-06   -796.83692            0   -796.83692    14363.352 
     570 3.6536407e-06   -796.83692            0   -796.83692    14363.351 
     571 4.1797902e-06   -796.83692            0   -796.83692    14363.351 
     572 4.7385918e-06   -796.83692            0   -796.83692    14363.351 
     573 5.3293374e-06   -796.83692            0   -796.83692     14363.35 
     574 5.951276e-06   -796.83692            0   -796.83692     14363.35 
     575 6.6036148e-06   -796.83692            0   -796.83692    14363.349 
     576 7.2855197e-06   -796.83692            0   -796.83692    14363.349 
     577 7.9961167e-06   -796.83693            0   -796.83693    14363.349 
     578 8.7344931e-06   -796.83693            0   -796.83693    14363.348 
     579 9.4996984e-06   -796.83693            0   -796.83693    14363.348 
     580 1.0290746e-05   -796.83693            0   -796.83693    14363.347 
     581 1.1106612e-05   -796.83693            0   -796.83693    14363.347 
     582 1.1946243e-05   -796.83693            0   -796.83693    14363.347 
     583 1.2808549e-05   -796.83694            0   -796.83694    14363.346 
     584 1.3692409e-05   -796.83694            0   -796.83694    14363.346 
     585 1.4596676e-05   -796.83694            0   -796.83694    14363.345 
     586 1.552017e-05   -796.83694            0   -796.83694    14363.345 
     587 1.6461686e-05   -796.83694            0   -796.83694    14363.345 
     588 1.7419996e-05   -796.83695            0   -796.83695    14363.345 
     589 1.8393847e-05   -796.83695            0   -796.83695    14363.344 
     590 1.938196e-05   -796.83695            0   -796.83695    14363.344 
     591 2.0383038e-05   -796.83695            0   -796.83695    14363.344 
     592 2.1395765e-05   -796.83696            0   -796.83695    14363.344 
     593 2.2418805e-05   -796.83696            0   -796.83696    14363.344 
     594 2.3450814e-05   -796.83696            0   -796.83696    14363.344 
     595 2.4490412e-05   -796.83696            0   -796.83696    14363.344 
     596 2.5536258e-05   -796.83697            0   -796.83697    14363.344 
     597 2.6586866e-05   -796.83697            0   -796.83697    14363.344 
     598 2.7641088e-05   -796.83697            0   -796.83697    14363.345 
     599 2.8696521e-05   -796.83697            0   -796.83697    14363.345 
     600 2.9751664e-05   -796.83698            0   -796.83698    14363.346 
     601 3.0758518e-05   -796.83698            0   -796.83698    14363.347 
     602 3.1147307e-05   -796.83698            0   -796.83698    14363.345 
     603 2.3041814e-05   -796.83699            0   -796.83699    14363.353 
     604 1.1233427e-06   -796.83699            0   -796.83699    14363.349 
     605 1.4587374e-06   -796.83699            0   -796.83699    14363.347 
     606 1.5888947e-06   -796.83699            0   -796.83699    14363.348 
     607 1.8257843e-06   -796.83699            0   -796.83699    14363.348 
     608 2.0782335e-06   -796.83699            0   -796.83699    14363.348 
     609 2.3457123e-06   -796.83699            0   -796.83699    14363.348 
     610 2.6278478e-06   -796.83699            0   -796.83699    14363.349 
     611 2.9242922e-06   -796.83699            0   -796.83699    14363.349 
     612 3.2346665e-06   -796.83699            0   -796.83699    14363.349 
     613 3.5585787e-06   -796.83699            0   -796.83699     14363.35 
     614 3.8956151e-06     -796.837            0     -796.837     14363.35 
     615 4.2453471e-06     -796.837            0     -796.837    14363.351 
     616 4.6073264e-06     -796.837            0     -796.837    14363.351 
     617 4.9810904e-06     -796.837            0     -796.837    14363.352 
     618 5.3661579e-06     -796.837            0     -796.837    14363.352 
     619 5.7620353e-06     -796.837            0     -796.837    14363.353 
     620 6.1682099e-06     -796.837            0     -796.837    14363.353 
     621 6.584161e-06   -796.83701            0   -796.83701    14363.354 
     622 7.0093444e-06   -796.83701            0   -796.83701    14363.355 
     623 7.4432193e-06   -796.83701            0   -796.83701    14363.355 
     624 7.8852023e-06   -796.83701            0   -796.83701    14363.356 
     625 8.3347563e-06   -796.83701            0   -796.83701    14363.357 
     626 8.7912059e-06   -796.83701            0   -796.83701    14363.358 
     627 9.2541154e-06   -796.83702            0   -796.83702    14363.359 
     628 9.7222444e-06   -796.83702            0   -796.83702     14363.36 
     629 1.0194951e-05   -796.83702            0   -796.83702    14363.361 
     630 1.0659692e-05   -796.83702            0   -796.83702    14363.363 
     631 1.1053118e-05   -796.83702            0   -796.83702    14363.362 
     632 1.0752056e-05   -796.83703            0   -796.83703    14363.371 
     633 6.5728425e-06   -796.83703            0   -796.83703    14363.355 
     634 6.895314e-07   -796.83703            0   -796.83703    14363.364 
     635 7.4728814e-07   -796.83703            0   -796.83703    14363.367 
     636 8.5419768e-07   -796.83703            0   -796.83703    14363.367 
     637 9.8822866e-07   -796.83703            0   -796.83703    14363.368 
     638 1.1313829e-06   -796.83703            0   -796.83703    14363.368 
     639 1.2834918e-06   -796.83703            0   -796.83703    14363.368 
     640 1.4443636e-06   -796.83703            0   -796.83703    14363.369 
     641 1.613797e-06   -796.83703            0   -796.83703     14363.37 
     642 1.7915788e-06   -796.83703            0   -796.83703     14363.37 
     643 1.977485e-06   -796.83703            0   -796.83703    14363.371 
     644 2.1712804e-06   -796.83703            0   -796.83703    14363.372 
     645 2.3727192e-06   -796.83704            0   -796.83704    14363.372 
     646 2.5815452e-06   -796.83704            0   -796.83704    14363.373 
     647 2.7974924e-06   -796.83704            0   -796.83704    14363.374 
     648 3.0202849e-06   -796.83704            0   -796.83704    14363.375 
     649 3.2496373e-06   -796.83704            0   -796.83704    14363.376 
     650 3.4852553e-06   -796.83704            0   -796.83704    14363.377 
     651 3.7268358e-06   -796.83704            0   -796.83704    14363.378 
     652 3.9740671e-06   -796.83704            0   -796.83704    14363.379 
     653 4.2266299e-06   -796.83704            0   -796.83704     14363.38 
     654 4.4841965e-06   -796.83705            0   -796.83705    14363.381 
     655 4.7464333e-06   -796.83705            0   -796.83705    14363.383 
     656 5.0129964e-06   -796.83705            0   -796.83705    14363.384 
     657 5.2835424e-06   -796.83705            0   -796.83705    14363.385 
     658 5.5577055e-06   -796.83705            0   -796.83705    14363.387 
     659 5.8351522e-06   -796.83705            0   -796.83705    14363.388 
     660 6.1154371e-06   -796.83706            0   -796.83705     14363.39 
     661 6.3983435e-06   -796.83706            0   -796.83706    14363.392 
     662 6.6824896e-06   -796.83706            0   -796.83706    14363.394 
     663 6.9653388e-06   -796.83706            0   -796.83706    14363.395 
     664 7.1995802e-06   -796.83706            0   -796.83706    14363.399 
     665 6.9645632e-06   -796.83706            0   -796.83706    14363.394 
     666 3.5458981e-06   -796.83706            0   -796.83706    14363.411 
     667 1.3458155e-07   -796.83707            0   -796.83707    14363.407 
     668 1.8261502e-07   -796.83707            0   -796.83707    14363.404 
     669 2.3007193e-07   -796.83707            0   -796.83707    14363.402 
     670 2.797811e-07   -796.83707            0   -796.83707    14363.402 
     671 3.367565e-07   -796.83707            0   -796.83707    14363.402 
     672 3.9944029e-07   -796.83707            0   -796.83707    14363.403 
     673 4.6728097e-07   -796.83707            0   -796.83707    14363.403 
     674 5.4014885e-07   -796.83707            0   -796.83707    14363.404 
     675 6.1795092e-07   -796.83707            0   -796.83707    14363.404 
     676 7.0059088e-07   -796.83707            0   -796.83707    14363.405 
     677 7.8796596e-07   -796.83707            0   -796.83707    14363.406 
     678 8.7996706e-07   -796.83707            0   -796.83707    14363.407 
     679 9.764789e-07   -796.83707            0   -796.83707    14363.407 
     680 1.0773801e-06   -796.83707            0   -796.83707    14363.408 
     681 1.1825435e-06   -796.83707            0   -796.83707    14363.409 
     682 1.291836e-06   -796.83707            0   -796.83707     14363.41 
     683 1.4051188e-06   -796.83707            0   -796.83707    14363.411 
     684 1.5222477e-06   -796.83707            0   -796.83707    14363.412 
     685 1.6430734e-06   -796.83708            0   -796.83708    14363.413 
     686 1.767441e-06   -796.83708            0   -796.83708    14363.415 
     687 1.895191e-06   -796.83708            0   -796.83708    14363.416 
     688 2.0261587e-06   -796.83708            0   -796.83708    14363.417 
     689 2.160175e-06   -796.83708            0   -796.83708    14363.419 
     690 2.2970661e-06   -796.83708            0   -796.83708     14363.42 
     691 2.4366542e-06   -796.83708            0   -796.83708    14363.421 
     692 2.5787569e-06   -796.83708            0   -796.83708    14363.423 
     693 2.7231881e-06   -796.83708            0   -796.83708    14363.425 
     694 2.8697578e-06   -796.83709            0   -796.83709    14363.426 
     695 3.0182726e-06   -796.83709            0   -796.83709    14363.428 
     696 3.1685345e-06   -796.83709            0   -796.83709     14363.43 
     697 3.320345e-06   -796.83709            0   -796.83709    14363.432 
     698 3.473496e-06   -796.83709            0   -796.83709    14363.434 
     699 3.6277918e-06   -796.83709            0   -796.83709    14363.436 
     700 3.7829921e-06   -796.83709            0   -796.83709    14363.438 
     701 3.9389738e-06   -796.83709            0   -796.83709    14363.441 
     702 4.0952358e-06    -796.8371            0    -796.8371    14363.443 
     703 4.2524228e-06    -796.8371            0    -796.8371    14363.445 
     704 4.4061693e-06    -796.8371            0    -796.8371    14363.449 
     705 4.5540204e-06    -796.8371            0    -796.8371    14363.445 
     706 4.3333943e-06    -796.8371            0    -796.8371    14363.471 
     707 7.243776e-07    -796.8371            0    -796.8371    14363.455 
     708 2.4669875e-07    -796.8371            0    -796.8371    14363.454 
     709 2.7801975e-07    -796.8371            0    -796.8371    14363.455 
     710 3.1740569e-07    -796.8371            0    -796.8371    14363.455 
     711 3.5923253e-07    -796.8371            0    -796.8371    14363.456 
     712 4.0343564e-07   -796.83711            0   -796.83711    14363.457 
     713 4.4993792e-07   -796.83711            0   -796.83711    14363.458 
     714 4.9868879e-07   -796.83711            0   -796.83711    14363.459 
     715 5.4962218e-07   -796.83711            0   -796.83711     14363.46 
     716 6.0267678e-07   -796.83711            0   -796.83711    14363.461 
     717 6.5778263e-07   -796.83711            0   -796.83711    14363.462 
     718 7.1487185e-07   -796.83711            0   -796.83711    14363.463 
     719 7.7386889e-07   -796.83711            0   -796.83711    14363.464 
     720 8.3470083e-07   -796.83711            0   -796.83711    14363.465 
     721 8.972855e-07   -796.83711            0   -796.83711    14363.467 
     722 9.6154708e-07   -796.83711            0   -796.83711    14363.468 
     723 1.0273939e-06   -796.83711            0   -796.83711     14363.47 
     724 1.0947532e-06   -796.83711            0   -796.83711    14363.471 
     725 1.1635124e-06   -796.83711            0   -796.83711    14363.473 
     726 1.2336252e-06   -796.83712            0   -796.83712    14363.474 
     727 1.3048985e-06   -796.83712            0   -796.83712    14363.476 
     728 1.3774089e-06   -796.83712            0   -796.83712    14363.478 
     729 1.450409e-06   -796.83712            0   -796.83712     14363.48 
     730 1.5238359e-06   -796.83712            0   -796.83712    14363.481 
     731 1.5869993e-06   -796.83712            0   -796.83712    14363.485 
     732 1.5918456e-06   -796.83712            0   -796.83712    14363.481 
     733 1.1840095e-06   -796.83712            0   -796.83712    14363.495 
     734 2.414914e-07   -796.83712            0   -796.83712    14363.488 
     735 1.4258422e-07   -796.83712            0   -796.83712    14363.488 
     736 1.6532172e-07   -796.83712            0   -796.83712    14363.489 
     737 1.8990698e-07   -796.83712            0   -796.83712    14363.489 
     738 2.1607031e-07   -796.83712            0   -796.83712     14363.49 
     739 2.4378442e-07   -796.83712            0   -796.83712    14363.491 
     740 2.7301261e-07   -796.83712            0   -796.83712    14363.492 
     741 3.0371888e-07   -796.83712            0   -796.83712    14363.493 
     742 3.3586396e-07   -796.83713            0   -796.83713    14363.494 
     743 3.6940731e-07   -796.83713            0   -796.83713    14363.495 
     744 4.0430591e-07   -796.83713            0   -796.83713    14363.496 
     745 4.4051525e-07   -796.83713            0   -796.83713    14363.497 
     746 4.779885e-07   -796.83713            0   -796.83713    14363.498 
     747 5.1667746e-07   -796.83713            0   -796.83713    14363.499 
     748 5.5653156e-07   -796.83713            0   -796.83713    14363.501 
     749 5.9749921e-07   -796.83713            0   -796.83713    14363.502 
     750 6.3952603e-07   -796.83713            0   -796.83713    14363.503 
     751 6.8255764e-07   -796.83713            0   -796.83713    14363.505 
     752 7.2653514e-07   -796.83713            0   -796.83713    14363.506 
     753 7.7140332e-07   -796.83713            0   -796.83713    14363.508 
     754 8.1709487e-07   -796.83713            0   -796.83713     14363.51 
     755 8.6356296e-07   -796.83713            0   -796.83713    14363.511 
     756 9.1070866e-07   -796.83713            0   -796.83713    14363.513 
     757 9.585429e-07   -796.83714            0   -796.83714    14363.515 
     758 1.0067323e-06   -796.83714            0   -796.83714    14363.517 
     759 1.0553835e-06   -796.83714            0   -796.83714    14363.519 
     760 1.0994167e-06   -796.83714            0   -796.83714    14363.522 
     761 1.1134785e-06   -796.83714            0   -796.83714     14363.52 
     762 8.5643869e-07   -796.83714            0   -796.83714    14363.531 
     763 1.3788384e-07   -796.83714            0   -796.83714    14363.526 
     764 8.5909923e-08   -796.83714            0   -796.83714    14363.526 
     765 9.8761166e-08   -796.83714            0   -796.83714    14363.526 
     766 1.1384059e-07   -796.83714            0   -796.83714    14363.527 
     767 1.2991432e-07   -796.83714            0   -796.83714    14363.528 
     768 1.4696879e-07   -796.83714            0   -796.83714    14363.529 
     769 1.649781e-07   -796.83714            0   -796.83714    14363.529 
     770 1.8392099e-07   -796.83714            0   -796.83714     14363.53 
     771 2.0377239e-07   -796.83714            0   -796.83714    14363.531 
     772 2.2450739e-07   -796.83714            0   -796.83714    14363.532 
     773 2.4609879e-07   -796.83714            0   -796.83714    14363.533 
     774 2.6851899e-07   -796.83714            0   -796.83714    14363.534 
     775 2.9173836e-07   -796.83714            0   -796.83714    14363.536 
     776 3.1572693e-07   -796.83715            0   -796.83715    14363.537 
     777 3.4045248e-07   -796.83715            0   -796.83715    14363.538 
     778 3.658831e-07   -796.83715            0   -796.83715    14363.539 
     779 3.9198358e-07   -796.83715            0   -796.83715    14363.541 
     780 4.1872102e-07   -796.83715            0   -796.83715    14363.542 
     781 4.4605551e-07   -796.83715            0   -796.83715    14363.544 
     782 4.7395693e-07   -796.83715            0   -796.83715    14363.545 
     783 5.0237185e-07   -796.83715            0   -796.83715    14363.547 
     784 5.3128941e-07   -796.83715            0   -796.83715    14363.549 
     785 5.6057811e-07   -796.83715            0   -796.83715     14363.55 
     786 5.9025347e-07   -796.83715            0   -796.83715    14363.552 
     787 6.1895715e-07   -796.83715            0   -796.83715    14363.554 
     788 6.4117244e-07   -796.83715            0   -796.83715    14363.555 
     789 6.0165414e-07   -796.83715            0   -796.83715     14363.56 
     790 3.0141595e-07   -796.83715            0   -796.83715    14363.556 
     791 3.3097751e-08   -796.83715            0   -796.83715    14363.558 
     792 3.8850772e-08   -796.83715            0   -796.83715     14363.56 
     793 4.557434e-08   -796.83716            0   -796.83716     14363.56 
     794 5.3956288e-08   -796.83716            0   -796.83716    14363.561 
     795 6.3028636e-08   -796.83716            0   -796.83716    14363.561 
     796 7.2764672e-08   -796.83716            0   -796.83716    14363.562 
     797 8.315234e-08   -796.83716            0   -796.83716    14363.563 
     798 9.4178368e-08   -796.83716            0   -796.83716    14363.563 
     799 1.0582864e-07   -796.83716            0   -796.83716    14363.564 
     800 1.1808812e-07   -796.83716            0   -796.83716    14363.565 
     801 1.3094092e-07   -796.83716            0   -796.83716    14363.566 
     802 1.4437028e-07   -796.83716            0   -796.83716    14363.567 
     803 1.5835857e-07   -796.83716            0   -796.83716    14363.568 
     804 1.7288734e-07   -796.83716            0   -796.83716    14363.569 
     805 1.8793731e-07   -796.83716            0   -796.83716     14363.57 
     806 2.0348837e-07   -796.83716            0   -796.83716    14363.571 
     807 2.1951964e-07   -796.83716            0   -796.83716    14363.573 
     808 2.3600942e-07   -796.83716            0   -796.83716    14363.574 
     809 2.5293527e-07   -796.83716            0   -796.83716    14363.575 
     810 2.7027396e-07   -796.83716            0   -796.83716    14363.576 
     811 2.8800157e-07   -796.83716            0   -796.83716    14363.578 
     812 3.0609335e-07   -796.83716            0   -796.83716    14363.579 
     813 3.2452401e-07   -796.83716            0   -796.83716    14363.581 
     814 3.4326723e-07   -796.83716            0   -796.83716    14363.583 
     815 3.6229671e-07   -796.83716            0   -796.83716    14363.584 
     816 3.8158374e-07   -796.83717            0   -796.83717    14363.586 
     817 4.0110347e-07   -796.83717            0   -796.83717    14363.588 
     818 4.2081795e-07   -796.83717            0   -796.83717     14363.59 
     819 4.4072497e-07   -796.83717            0   -796.83717    14363.592 
     820 4.6071258e-07   -796.83717            0   -796.83717    14363.594 
     821 4.8104752e-07   -796.83717            0   -796.83717    14363.595 
     822 5.0109169e-07   -796.83717            0   -796.83717    14363.598 
     823 5.2827133e-07   -796.83717            0   -796.83717    14363.597 
     824 5.5594891e-07   -796.83717            0   -796.83717    14363.609 
     825 9.9193387e-08   -796.83717            0   -796.83717    14363.603 
     826 3.5811968e-08   -796.83717            0   -796.83717    14363.602 
     827 3.4739795e-08   -796.83717            0   -796.83717    14363.603 
     828 4.0290943e-08   -796.83717            0   -796.83717    14363.604 
     829 4.6257711e-08   -796.83717            0   -796.83717    14363.604 
     830 5.2614309e-08   -796.83717            0   -796.83717    14363.605 
     831 5.9342146e-08   -796.83717            0   -796.83717    14363.606 
     832 6.6435869e-08   -796.83717            0   -796.83717    14363.606 
     833 7.388397e-08   -796.83717            0   -796.83717    14363.607 
     834 8.1677938e-08   -796.83717            0   -796.83717    14363.608 
     835 8.980609e-08   -796.83717            0   -796.83717    14363.609 
     836 9.8258576e-08   -796.83717            0   -796.83717     14363.61 
     837 1.0702263e-07   -796.83717            0   -796.83717    14363.611 
     838 1.1608776e-07   -796.83717            0   -796.83717    14363.612 
     839 1.2543939e-07   -796.83717            0   -796.83717    14363.613 
     840 1.3506755e-07   -796.83718            0   -796.83718    14363.615 
     841 1.4495388e-07   -796.83718            0   -796.83718    14363.616 
     842 1.5509288e-07   -796.83718            0   -796.83718    14363.617 
     843 1.6545418e-07   -796.83718            0   -796.83718    14363.618 
     844 1.7605444e-07   -796.83718            0   -796.83718     14363.62 
     845 1.8680876e-07   -796.83718            0   -796.83718    14363.621 
     846 1.978506e-07   -796.83718            0   -796.83718    14363.623 
     847 2.0875452e-07   -796.83718            0   -796.83718    14363.625 
     848 2.2026314e-07   -796.83718            0   -796.83718    14363.625 
     849 2.2791033e-07   -796.83718            0   -796.83718    14363.629 
     850 2.0233067e-07   -796.83718            0   -796.83718    14363.625 
     851 4.7774911e-08   -796.83718            0   -796.83718    14363.629 
     852 2.0505981e-08   -796.83718            0   -796.83718    14363.629 
     853 2.4101743e-08   -796.83718            0   -796.83718     14363.63 
     854 2.8018161e-08   -796.83718            0   -796.83718    14363.631 
     855 3.2213643e-08   -796.83718            0   -796.83718    14363.631 
     856 3.6679034e-08   -796.83718            0   -796.83718    14363.632 
     857 4.140929e-08   -796.83718            0   -796.83718    14363.632 
     858 4.6397615e-08   -796.83718            0   -796.83718    14363.633 
     859 5.1637515e-08   -796.83718            0   -796.83718    14363.634 
     860 5.712166e-08   -796.83718            0   -796.83718    14363.635 
     861 6.2842695e-08   -796.83718            0   -796.83718    14363.636 
     862 6.8792558e-08   -796.83718            0   -796.83718    14363.637 
     863 7.496317e-08   -796.83718            0   -796.83718    14363.638 
     864 8.1345667e-08   -796.83718            0   -796.83718    14363.639 
     865 8.7931386e-08   -796.83718            0   -796.83718     14363.64 
     866 9.4710494e-08   -796.83718            0   -796.83718    14363.641 
     867 1.0167413e-07   -796.83718            0   -796.83718    14363.642 
     868 1.088108e-07   -796.83719            0   -796.83719    14363.643 
     869 1.1611298e-07   -796.83719            0   -796.83719    14363.644 
     870 1.2356412e-07   -796.83719            0   -796.83719    14363.646 
     871 1.311659e-07   -796.83719            0   -796.83719    14363.647 
     872 1.3887586e-07   -796.83719            0   -796.83719    14363.649 
     873 1.4675025e-07   -796.83719            0   -796.83719     14363.65 
     874 1.545312e-07   -796.83719            0   -796.83719    14363.652 
     875 1.6235411e-07   -796.83719            0   -796.83719    14363.653 
     876 1.6511229e-07   -796.83719            0   -796.83719    14363.656 
     877 1.3265711e-07   -796.83719            0   -796.83719    14363.653 
     878 2.0419786e-08   -796.83719            0   -796.83719    14363.656 
     879 1.2838792e-08   -796.83719            0   -796.83719    14363.657 
     880 1.4319436e-08   -796.83719            0   -796.83719    14363.657 
     881 1.6853975e-08   -796.83719            0   -796.83719    14363.657 
     882 1.9585383e-08   -796.83719            0   -796.83719    14363.658 
     883 2.2508009e-08   -796.83719            0   -796.83719    14363.659 
     884 2.5618191e-08   -796.83719            0   -796.83719    14363.659 
     885 2.891158e-08   -796.83719            0   -796.83719     14363.66 
     886 3.2383709e-08   -796.83719            0   -796.83719    14363.661 
     887 3.6029746e-08   -796.83719            0   -796.83719    14363.661 
     888 3.9844648e-08   -796.83719            0   -796.83719    14363.662 
     889 4.3823055e-08   -796.83719            0   -796.83719    14363.663 
     890 4.795939e-08   -796.83719            0   -796.83719    14363.664 
     891 5.2247765e-08   -796.83719            0   -796.83719    14363.665 
     892 5.6682105e-08   -796.83719            0   -796.83719    14363.666 
     893 6.1255993e-08   -796.83719            0   -796.83719    14363.667 
     894 6.5962908e-08   -796.83719            0   -796.83719    14363.668 
     895 7.0795865e-08   -796.83719            0   -796.83719    14363.669 
     896 7.5748045e-08   -796.83719            0   -796.83719     14363.67 
     897 8.0811635e-08   -796.83719            0   -796.83719    14363.671 
     898 8.5980102e-08   -796.83719            0   -796.83719    14363.672 
     899 9.1243061e-08   -796.83719            0   -796.83719    14363.674 
     900 9.6595727e-08    -796.8372            0    -796.8372    14363.675 
     901 1.020002e-07    -796.8372            0    -796.8372    14363.676 
     902 1.0735298e-07    -796.8372            0    -796.8372    14363.678 
     903 1.1141367e-07    -796.8372            0    -796.8372    14363.679 
     904 1.0460479e-07    -796.8372            0    -796.8372     14363.68 
     905 4.559055e-08    -796.8372            0    -796.8372    14363.682 
     906 3.1613039e-09    -796.8372            0    -796.8372    14363.682 
     907 5.2808295e-09    -796.8372            0    -796.8372    14363.682 
     908 6.7866337e-09    -796.8372            0    -796.8372    14363.682 
     909 8.2632178e-09    -796.8372            0    -796.8372    14363.683 
     910 9.8812089e-09    -796.8372            0    -796.8372    14363.683 
     911 1.1637354e-08    -796.8372            0    -796.8372    14363.684 
     912 1.3528911e-08    -796.8372            0    -796.8372    14363.684 
     913 1.5553305e-08    -796.8372            0    -796.8372    14363.685 
     914 1.7707748e-08    -796.8372            0    -796.8372    14363.685 
     915 1.9989257e-08    -796.8372            0    -796.8372    14363.686 
     916 2.2394651e-08    -796.8372            0    -796.8372    14363.687 
     917 2.4920557e-08    -796.8372            0    -796.8372    14363.687 
     918 2.7563412e-08    -796.8372            0    -796.8372    14363.688 
     919 3.0319468e-08    -796.8372            0    -796.8372    14363.689 
     920 3.3184793e-08    -796.8372            0    -796.8372     14363.69 
     921 3.6155279e-08    -796.8372            0    -796.8372     14363.69 
     922 3.9226643e-08    -796.8372            0    -796.8372    14363.691 
     923 4.2394427e-08    -796.8372            0    -796.8372    14363.692 
     924 4.5654019e-08    -796.8372            0    -796.8372    14363.693 
     925 4.900063e-08    -796.8372            0    -796.8372    14363.694 
     926 5.2429342e-08    -796.8372            0    -796.8372    14363.695 
     927 5.5935034e-08    -796.8372            0    -796.8372    14363.697 
     928 5.9512559e-08    -796.8372            0    -796.8372    14363.698 
     929 6.3156343e-08    -796.8372            0    -796.8372    14363.699 
     930 6.6861382e-08    -796.8372            0    -796.8372      14363.7 
     931 7.062024e-08    -796.8372            0    -796.8372    14363.701 
     932 7.4429111e-08    -796.8372            0    -796.8372    14363.703 
     933 7.8243943e-08    -796.8372            0    -796.8372    14363.704 
     934 8.1859729e-08    -796.8372            0    -796.8372    14363.705 
     935 8.2438402e-08    -796.8372            0    -796.8372    14363.707 
     936 5.802585e-08    -796.8372            0    -796.8372    14363.707 
     937 4.957129e-09   -796.83721            0   -796.83721    14363.708 
     938 5.9867817e-09   -796.83721            0   -796.83721    14363.709 
     939 7.108374e-09   -796.83721            0   -796.83721    14363.709 
     940 8.3374639e-09   -796.83721            0   -796.83721    14363.709 
     941 9.6603312e-09   -796.83721            0   -796.83721     14363.71 
     942 1.1073321e-08   -796.83721            0   -796.83721     14363.71 
     943 1.257499e-08   -796.83721            0   -796.83721    14363.711 
     944 1.4162909e-08   -796.83721            0   -796.83721    14363.712 
     945 1.5835083e-08   -796.83721            0   -796.83721    14363.712 
     946 1.7588942e-08   -796.83721            0   -796.83721    14363.713 
     947 1.942221e-08   -796.83721            0   -796.83721    14363.714 
     948 2.1332024e-08   -796.83721            0   -796.83721    14363.714 
     949 2.3315974e-08   -796.83721            0   -796.83721    14363.715 
     950 2.5370736e-08   -796.83721            0   -796.83721    14363.716 
     951 2.7494077e-08   -796.83721            0   -796.83721    14363.717 
     952 2.9681608e-08   -796.83721            0   -796.83721    14363.718 
     953 3.1932451e-08   -796.83721            0   -796.83721    14363.718 
     954 3.4238034e-08   -796.83721            0   -796.83721    14363.719 
     955 3.6603382e-08   -796.83721            0   -796.83721     14363.72 
     956 3.8989471e-08   -796.83721            0   -796.83721    14363.721 
     957 4.1383443e-08   -796.83721            0   -796.83721    14363.722 
     958 4.3172878e-08   -796.83721            0   -796.83721    14363.724 
     959 4.171257e-08   -796.83721            0   -796.83721    14363.724 
     960 2.4314747e-08   -796.83721            0   -796.83721    14363.726 
     961 4.2555745e-09   -796.83721            0   -796.83721    14363.726 
     962 4.0058032e-09   -796.83721            0   -796.83721    14363.726 
     963 4.7810826e-09   -796.83721            0   -796.83721    14363.726 
     964 5.6663718e-09   -796.83721            0   -796.83721    14363.727 
     965 6.6222259e-09   -796.83721            0   -796.83721    14363.727 
     966 7.6480665e-09   -796.83721            0   -796.83721    14363.728 
     967 8.7421891e-09   -796.83721            0   -796.83721    14363.728 
     968 9.903208e-09   -796.83721            0   -796.83721    14363.729 
     969 1.1129419e-08   -796.83721            0   -796.83721    14363.729 
     970 1.2419171e-08   -796.83721            0   -796.83721     14363.73 
     971 1.3770587e-08   -796.83721            0   -796.83721     14363.73 
     972 1.5181824e-08   -796.83721            0   -796.83721    14363.731 
     973  1.66508e-08   -796.83721            0   -796.83721    14363.732 
     974 1.8175537e-08   -796.83721            0   -796.83721    14363.732 
     975 1.9753687e-08   -796.83721            0   -796.83721    14363.733 
     976 2.1383275e-08   -796.83721            0   -796.83721    14363.734 
     977 2.3061443e-08   -796.83721            0   -796.83721    14363.735 
     978 2.4786774e-08   -796.83721            0   -796.83721    14363.736 
     979 2.655465e-08   -796.83721            0   -796.83721    14363.737 
     980 2.8367112e-08   -796.83721            0   -796.83721    14363.737 
     981 3.0209638e-08   -796.83721            0   -796.83721    14363.738 
     982 3.2104167e-08   -796.83721            0   -796.83721    14363.739 
     983 3.3943835e-08   -796.83721            0   -796.83721    14363.741 
     984 3.5732287e-08   -796.83721            0   -796.83721    14363.741 
     985 3.5084908e-08   -796.83721            0   -796.83721    14363.743 
     986 2.0821162e-08   -796.83721            0   -796.83721    14363.742 
     987 2.6148578e-09   -796.83721            0   -796.83721    14363.743 
     988 2.2553514e-09   -796.83721            0   -796.83721    14363.743 
     989 2.5686296e-09   -796.83721            0   -796.83721    14363.744 
     990 3.1317724e-09   -796.83722            0   -796.83722    14363.744 
     991 3.7519619e-09   -796.83722            0   -796.83722    14363.744 
     992 4.425535e-09   -796.83722            0   -796.83722    14363.745 
     993 5.1515823e-09   -796.83722            0   -796.83722    14363.745 
     994 5.9291163e-09   -796.83722            0   -796.83722    14363.746 
     995 6.7570746e-09   -796.83722            0   -796.83722    14363.746 
     996 7.6343202e-09   -796.83722            0   -796.83722    14363.747 
     997 8.5596437e-09   -796.83722            0   -796.83722    14363.747 
     998 9.5317648e-09   -796.83722            0   -796.83722    14363.748 
     999 1.0549334e-08   -796.83722            0   -796.83722    14363.748 
    1000 1.1610934e-08   -796.83722            0   -796.83722    14363.749 
    1001 1.2715084e-08   -796.83722            0   -796.83722    14363.749 
    1002 1.3860238e-08   -796.83722            0   -796.83722     14363.75 
    1003 1.504479e-08   -796.83722            0   -796.83722    14363.751 
    1004 1.6267076e-08   -796.83722            0   -796.83722    14363.752 
    1005 1.7525378e-08   -796.83722            0   -796.83722    14363.752 
    1006 1.8817916e-08   -796.83722            0   -796.83722    14363.753 
    1007 2.014288e-08   -796.83722            0   -796.83722    14363.754 
    1008 2.1498366e-08   -796.83722            0   -796.83722    14363.755 
    1009 2.2882542e-08   -796.83722            0   -796.83722    14363.756 
    1010 2.4293217e-08   -796.83722            0   -796.83722    14363.757 
    1011 2.5729032e-08   -796.83722            0   -796.83722    14363.758 
    1012 2.7185804e-08   -796.83722            0   -796.83722    14363.759 
    1013 2.8665943e-08   -796.83722            0   -796.83722     14363.76 
    1014 3.012841e-08   -796.83722            0   -796.83722    14363.761 
[...]
    1984 2.9107282e-05   -796.86374            0   -796.86374     14464.02 
    1985 8.5334363e-06   -796.86375            0   -796.86375    14464.028 
    1986 1.0186022e-05   -796.86375            0   -796.86375    14464.046 
    1987 1.2145724e-05   -796.86376            0   -796.86376    14464.065 
    1988 1.4266228e-05   -796.86377            0   -796.86377    14464.085 
    1989 1.6546864e-05   -796.86378            0   -796.86378    14464.107 
    1990 1.8982525e-05   -796.86378            0   -796.86378    14464.131 
    1991 2.1570213e-05   -796.86379            0   -796.86379    14464.156 
    1992 2.4305203e-05    -796.8638            0    -796.8638    14464.184 
    1993 2.7183715e-05   -796.86381            0   -796.86381    14464.212 
    1994 3.0200511e-05   -796.86382            0   -796.86382    14464.243 
    1995 3.3351509e-05   -796.86384            0   -796.86383    14464.275 
    1996 3.6630493e-05   -796.86385            0   -796.86385    14464.309 
    1997 4.0033863e-05   -796.86386            0   -796.86386    14464.344 
    1998 4.3552953e-05   -796.86387            0   -796.86387    14464.381 
    1999 4.7187763e-05   -796.86389            0   -796.86389    14464.419 
    2000 5.0919658e-05    -796.8639            0    -796.8639     14464.46 
    2001 5.4768488e-05   -796.86392            0   -796.86392      14464.5 
    2002 5.8649999e-05   -796.86393            0   -796.86393    14464.547 
    2003 6.2665856e-05   -796.86395            0   -796.86395    14464.581 
    2004 6.5780366e-05   -796.86396            0   -796.86396    14464.654 
    2005 6.3914185e-05   -796.86398            0   -796.86398    14464.624 
    2006 2.4724809e-05   -796.86398            0   -796.86398    14464.714 
    2007 5.5057469e-06   -796.86399            0   -796.86399    14464.702 
    2008 5.2830085e-06   -796.86399            0   -796.86399    14464.712 
    2009 6.4236387e-06     -796.864            0     -796.864    14464.725 
    2010 7.6940346e-06     -796.864            0     -796.864     14464.74 
    2011 9.0720069e-06   -796.86401            0   -796.86401    14464.756 
    2012 1.0555775e-05   -796.86401            0   -796.86401    14464.774 
    2013 1.2142719e-05   -796.86402            0   -796.86402    14464.793 
    2014 1.3830285e-05   -796.86403            0   -796.86403    14464.813 
    2015 1.561559e-05   -796.86404            0   -796.86404    14464.835 
    2016 1.7495676e-05   -796.86404            0   -796.86404    14464.858 
    2017 1.9467306e-05   -796.86405            0   -796.86405    14464.882 
    2018 2.1527178e-05   -796.86406            0   -796.86406    14464.907 
    2019 2.3671674e-05   -796.86407            0   -796.86407    14464.934 
    2020 2.5897222e-05   -796.86408            0   -796.86408    14464.963 
    2021 2.8199736e-05   -796.86409            0   -796.86409    14464.992 
    2022 3.0575601e-05    -796.8641            0    -796.8641    14465.023 
    2023 3.3019798e-05   -796.86411            0   -796.86411    14465.055 
    2024 3.552982e-05   -796.86413            0   -796.86413    14465.088 
    2025 3.8096675e-05   -796.86414            0   -796.86414    14465.123 
    2026 4.0726188e-05   -796.86415            0   -796.86415    14465.158 
    2027 4.337613e-05   -796.86417            0   -796.86416    14465.197 
    2028 4.6074915e-05   -796.86418            0   -796.86418    14465.229 
    2029 4.7962823e-05   -796.86419            0   -796.86419    14465.287 
    2030 4.3812781e-05   -796.86421            0    -796.8642    14465.264 
    2031 1.0315608e-05   -796.86421            0   -796.86421    14465.322 
    2032 3.4201433e-06   -796.86421            0   -796.86421    14465.324 
    2033 3.9594157e-06   -796.86422            0   -796.86422    14465.335 
    2034 4.7455748e-06   -796.86422            0   -796.86422    14465.346 
    2035 5.5980928e-06   -796.86422            0   -796.86422    14465.359 
    2036 6.5161551e-06   -796.86423            0   -796.86423    14465.373 
    2037 7.497818e-06   -796.86423            0   -796.86423    14465.387 
    2038   8.5415e-06   -796.86424            0   -796.86424    14465.403 
    2039 9.6452376e-06   -796.86425            0   -796.86425     14465.42 
    2040 1.0807141e-05   -796.86425            0   -796.86425    14465.438 
    2041 1.2025024e-05   -796.86426            0   -796.86426    14465.457 
    2042 1.3296781e-05   -796.86427            0   -796.86427    14465.477 
    2043 1.4619947e-05   -796.86427            0   -796.86427    14465.498 
    2044 1.5992301e-05   -796.86428            0   -796.86428     14465.52 
    2045 1.7410943e-05   -796.86429            0   -796.86429    14465.543 
    2046 1.8873881e-05    -796.8643            0    -796.8643    14465.567 
    2047 2.0376998e-05   -796.86431            0   -796.86431    14465.592 
    2048 2.1920162e-05   -796.86432            0   -796.86432    14465.618 
    2049 2.3492255e-05   -796.86433            0   -796.86433    14465.646 
    2050 2.5098954e-05   -796.86434            0   -796.86434    14465.672 
    2051 2.6618365e-05   -796.86435            0   -796.86435    14465.705 
    2052 2.7564363e-05   -796.86436            0   -796.86436    14465.722 
    2053 2.270321e-05   -796.86437            0   -796.86437    14465.778 
    2054 5.0461166e-06   -796.86437            0   -796.86437    14465.759 
    2055 2.1291565e-06   -796.86437            0   -796.86437    14465.772 
    2056 2.4968546e-06   -796.86438            0   -796.86438     14465.78 
    2057 2.9923204e-06   -796.86438            0   -796.86438    14465.789 
    2058 3.5304039e-06   -796.86438            0   -796.86438    14465.799 
    2059 4.1094459e-06   -796.86439            0   -796.86439     14465.81 
    2060 4.7285052e-06   -796.86439            0   -796.86439    14465.821 
    2061 5.3863561e-06    -796.8644            0    -796.8644    14465.834 
    2062 6.0818031e-06    -796.8644            0    -796.8644    14465.847 
    2063 6.8134903e-06   -796.86441            0   -796.86441    14465.861 
    2064 7.5800567e-06   -796.86441            0   -796.86441    14465.876 
    2065 8.379986e-06   -796.86442            0   -796.86442    14465.892 
    2066 9.2117855e-06   -796.86442            0   -796.86442    14465.909 
    2067 1.0073749e-05   -796.86443            0   -796.86443    14465.926 
    2068 1.0964323e-05   -796.86444            0   -796.86444    14465.944 
    2069 1.1881485e-05   -796.86444            0   -796.86444    14465.963 
    2070 1.2823894e-05   -796.86445            0   -796.86445    14465.983 
    2071 1.3788422e-05   -796.86446            0   -796.86446    14466.004 
    2072 1.4774967e-05   -796.86447            0   -796.86447    14466.025 
    2073 1.5769527e-05   -796.86447            0   -796.86447    14466.048 
    2074 1.6745311e-05   -796.86448            0   -796.86448    14466.068 
    2075 1.7272012e-05   -796.86449            0   -796.86449    14466.097 
    2076 1.4490209e-05    -796.8645            0    -796.8645    14466.102 
    2077 3.2883626e-06    -796.8645            0    -796.8645    14466.127 
    2078 9.7014645e-07    -796.8645            0    -796.8645    14466.127 
    2079 1.1910615e-06    -796.8645            0    -796.8645    14466.132 
    2080 1.4594163e-06   -796.86451            0   -796.86451    14466.138 
    2081 1.756841e-06   -796.86451            0   -796.86451    14466.145 
    2082 2.0800574e-06   -796.86451            0   -796.86451    14466.153 
    2083 2.4284279e-06   -796.86452            0   -796.86452    14466.161 
    2084 2.8012703e-06   -796.86452            0   -796.86452     14466.17 
    2085 3.1978463e-06   -796.86452            0   -796.86452    14466.179 
    2086 3.6173657e-06   -796.86453            0   -796.86453     14466.19 
    2087 4.0589857e-06   -796.86453            0   -796.86453      14466.2 
    2088 4.5218134e-06   -796.86453            0   -796.86453    14466.212 
    2089 5.0049055e-06   -796.86454            0   -796.86454    14466.224 
    2090 5.5072707e-06   -796.86454            0   -796.86454    14466.237 
    2091 6.0278693e-06   -796.86455            0   -796.86455     14466.25 
    2092 6.5656174e-06   -796.86455            0   -796.86455    14466.264 
    2093 7.1193822e-06   -796.86456            0   -796.86456    14466.279 
    2094 7.6879942e-06   -796.86456            0   -796.86456    14466.294 
    2095 8.2702269e-06   -796.86457            0   -796.86457     14466.31 
    2096 8.8648448e-06   -796.86458            0   -796.86458    14466.327 
    2097 9.470493e-06   -796.86458            0   -796.86458    14466.344 
    2098 1.0085985e-05   -796.86459            0   -796.86459    14466.361 
    2099 1.0709509e-05   -796.86459            0   -796.86459    14466.379 
    2100 1.1340992e-05    -796.8646            0    -796.8646    14466.398 
    2101 1.1974632e-05   -796.86461            0   -796.86461    14466.418 
    2102 1.2625155e-05   -796.86462            0   -796.86462    14466.435 
    2103 1.3249639e-05   -796.86462            0   -796.86462    14466.464 
    2104 1.4051091e-05   -796.86463            0   -796.86463     14466.45 
    2105 5.508973e-06   -796.86463            0   -796.86463    14466.495 
    2106 3.8106284e-07   -796.86463            0   -796.86463     14466.49 
    2107 3.9123558e-07   -796.86463            0   -796.86463    14466.488 
    2108 4.5602813e-07   -796.86464            0   -796.86464     14466.49 
    2109 5.6934122e-07   -796.86464            0   -796.86464    14466.494 
    2110 7.0221338e-07   -796.86464            0   -796.86464    14466.498 
    2111 8.4870633e-07   -796.86464            0   -796.86464    14466.503 
    2112 1.008151e-06   -796.86464            0   -796.86464    14466.508 
    2113 1.1802004e-06   -796.86464            0   -796.86464    14466.514 
    2114 1.3644913e-06   -796.86465            0   -796.86465     14466.52 
    2115 1.5606288e-06   -796.86465            0   -796.86465    14466.526 
    2116 1.7681898e-06   -796.86465            0   -796.86465    14466.534 
    2117 1.9867227e-06   -796.86465            0   -796.86465    14466.541 
    2118 2.2157485e-06   -796.86466            0   -796.86466    14466.549 
    2119 2.4547603e-06   -796.86466            0   -796.86466    14466.558 
    2120 2.7032256e-06   -796.86466            0   -796.86466    14466.566 
    2121 2.9605847e-06   -796.86467            0   -796.86467    14466.576 
    2122 3.2262541e-06   -796.86467            0   -796.86467    14466.586 
    2123 3.4996234e-06   -796.86467            0   -796.86467    14466.596 
    2124 3.7800615e-06   -796.86468            0   -796.86468    14466.606 
    2125 4.0669065e-06   -796.86468            0   -796.86468    14466.618 
    2126 4.3594897e-06   -796.86469            0   -796.86469    14466.629 
    2127 4.6570807e-06   -796.86469            0   -796.86469    14466.641 
    2128 4.9590276e-06   -796.86469            0   -796.86469    14466.653 
    2129 5.2643779e-06    -796.8647            0    -796.8647    14466.666 
    2130 5.5729847e-06    -796.8647            0    -796.8647    14466.679 
    2131 5.8820732e-06   -796.86471            0   -796.86471    14466.693 
    2132 6.1980745e-06   -796.86471            0   -796.86471    14466.705 
    2133 6.5012662e-06   -796.86472            0   -796.86472    14466.725 
    2134 6.8975352e-06   -796.86472            0   -796.86472    14466.716 
    2135 3.3379513e-06   -796.86473            0   -796.86473    14466.752 
    2136 1.0072338e-07   -796.86473            0   -796.86473    14466.748 
    2137 1.3106026e-07   -796.86473            0   -796.86473    14466.745 
    2138 1.5195385e-07   -796.86473            0   -796.86473    14466.744 
    2139 1.8126449e-07   -796.86473            0   -796.86473    14466.744 
    2140 2.2847631e-07   -796.86473            0   -796.86473    14466.746 
    2141 2.8692692e-07   -796.86473            0   -796.86473    14466.749 
    2142 3.5254707e-07   -796.86473            0   -796.86473    14466.752 
    2143 4.2456207e-07   -796.86473            0   -796.86473    14466.755 
    2144 5.0276064e-07   -796.86473            0   -796.86473    14466.759 
    2145 5.8696192e-07   -796.86474            0   -796.86474    14466.763 
    2146 6.7697113e-07   -796.86474            0   -796.86474    14466.767 
    2147 7.7257767e-07   -796.86474            0   -796.86474    14466.772 
    2148 8.7355594e-07   -796.86474            0   -796.86474    14466.777 
    2149 9.7966532e-07   -796.86474            0   -796.86474    14466.782 
    2150 1.0906506e-06   -796.86474            0   -796.86474    14466.788 
    2151 1.2062423e-06   -796.86475            0   -796.86475    14466.794 
    2152 1.3261567e-06   -796.86475            0   -796.86475      14466.8 
    2153 1.4500963e-06   -796.86475            0   -796.86475    14466.807 
    2154 1.5777504e-06   -796.86475            0   -796.86475    14466.813 
    2155 1.7087946e-06   -796.86476            0   -796.86476    14466.821 
    2156 1.842892e-06   -796.86476            0   -796.86476    14466.828 
    2157 1.9796919e-06   -796.86476            0   -796.86476    14466.836 
    2158 2.1188337e-06   -796.86476            0   -796.86476    14466.844 
    2159 2.2599374e-06   -796.86477            0   -796.86477    14466.852 
    2160 2.4026284e-06   -796.86477            0   -796.86477     14466.86 
    2161  2.54647e-06   -796.86477            0   -796.86477    14466.869 
    2162 2.691162e-06   -796.86478            0   -796.86478    14466.878 
    2163 2.8359155e-06   -796.86478            0   -796.86478    14466.887 
    2164 2.9815927e-06   -796.86478            0   -796.86478    14466.897 
    2165 3.1236629e-06   -796.86479            0   -796.86479    14466.908 
    2166 3.2897906e-06   -796.86479            0   -796.86479    14466.911 
    2167 3.3158222e-06   -796.86479            0   -796.86479    14466.941 
    2168 2.6994568e-07   -796.86479            0   -796.86479    14466.933 
    2169 2.1553967e-07    -796.8648            0    -796.8648    14466.928 
    2170 1.4410914e-07    -796.8648            0    -796.8648    14466.929 
    2171 1.6890809e-07    -796.8648            0    -796.8648    14466.931 
    2172 2.0238625e-07    -796.8648            0    -796.8648    14466.933 
    2173 2.3862291e-07    -796.8648            0    -796.8648    14466.936 
    2174 2.7752579e-07    -796.8648            0    -796.8648    14466.938 
    2175 3.1899489e-07    -796.8648            0    -796.8648    14466.941 
    2176 3.6292248e-07    -796.8648            0    -796.8648    14466.945 
    2177 4.0919317e-07    -796.8648            0    -796.8648    14466.948 
    2178 4.5768407e-07    -796.8648            0    -796.8648    14466.952 
    2179 5.0826487e-07   -796.86481            0   -796.86481    14466.955 
    2180 5.6079802e-07   -796.86481            0   -796.86481    14466.959 
    2181 6.1513876e-07   -796.86481            0   -796.86481    14466.964 
    2182 6.7113532e-07   -796.86481            0   -796.86481    14466.968 
    2183 7.2862895e-07   -796.86481            0   -796.86481    14466.973 
    2184 7.8745402e-07   -796.86481            0   -796.86481    14466.977 
    2185 8.4743818e-07   -796.86482            0   -796.86482    14466.982 
    2186 9.0840211e-07   -796.86482            0   -796.86482    14466.988 
    2187 9.7016014e-07   -796.86482            0   -796.86482    14466.993 
    2188 1.0325186e-06   -796.86482            0   -796.86482    14466.999 
    2189 1.0952787e-06   -796.86482            0   -796.86482    14467.004 
    2190 1.1582153e-06   -796.86483            0   -796.86483     14467.01 
    2191 1.2210141e-06   -796.86483            0   -796.86483    14467.016 
    2192 1.2820163e-06   -796.86483            0   -796.86483    14467.022 
    2193 1.3238385e-06   -796.86483            0   -796.86483    14467.029 
    2194 1.1336317e-06   -796.86483            0   -796.86483    14467.035 
    2195 1.7299037e-07   -796.86484            0   -796.86484    14467.036 
    2196 1.8831834e-08   -796.86484            0   -796.86484    14467.037 
    2197 3.0126488e-08   -796.86484            0   -796.86484    14467.038 
    2198 4.1772084e-08   -796.86484            0   -796.86484    14467.039 
    2199 5.3676695e-08   -796.86484            0   -796.86484     14467.04 
    2200 6.6743402e-08   -796.86484            0   -796.86484    14467.041 
    2201 8.1125767e-08   -796.86484            0   -796.86484    14467.043 
    2202 9.6792069e-08   -796.86484            0   -796.86484    14467.045 
    2203 1.1369842e-07   -796.86484            0   -796.86484    14467.046 
    2204 1.3179667e-07   -796.86484            0   -796.86484    14467.048 
    2205 1.5103466e-07   -796.86484            0   -796.86484     14467.05 
    2206 1.713562e-07   -796.86484            0   -796.86484    14467.052 
    2207 1.9270118e-07   -796.86484            0   -796.86484    14467.055 
    2208 2.1500558e-07   -796.86484            0   -796.86484    14467.057 
    2209 2.3820155e-07   -796.86484            0   -796.86484     14467.06 
    2210 2.6221742e-07   -796.86485            0   -796.86485    14467.062 
    2211 2.8697779e-07   -796.86485            0   -796.86485    14467.065 
    2212 3.124035e-07   -796.86485            0   -796.86485    14467.068 
    2213 3.3841173e-07   -796.86485            0   -796.86485    14467.071 
    2214 3.6491595e-07   -796.86485            0   -796.86485    14467.075 
    2215 3.9182597e-07   -796.86485            0   -796.86485    14467.078 
    2216 4.1904786e-07   -796.86485            0   -796.86485    14467.082 
    2217  4.46484e-07   -796.86485            0   -796.86485    14467.085 
    2218 4.7403284e-07   -796.86485            0   -796.86485    14467.089 
    2219 5.0158917e-07   -796.86486            0   -796.86486    14467.093 
    2220 5.2904281e-07   -796.86486            0   -796.86486    14467.097 
    2221 5.5628083e-07   -796.86486            0   -796.86486    14467.101 
    2222 5.8316586e-07   -796.86486            0   -796.86486    14467.105 
    2223 6.0943461e-07   -796.86486            0   -796.86486    14467.109 
    2224 6.3244853e-07   -796.86486            0   -796.86486    14467.114 
    2225 6.1428899e-07   -796.86487            0   -796.86487    14467.117 
    2226 2.3976945e-07   -796.86487            0   -796.86487    14467.121 
    2227 3.3203318e-10   -796.86487            0   -796.86487    14467.121 
Loop time of 427.117 on 24 procs for 727 steps with 127 atoms

98.5% CPU use with 24 MPI tasks x no OpenMP threads

Minimization stats:
  Stopping criterion = energy tolerance
  Energy initial, next-to-last, final = 
        -796.837249684     -796.864866312     -796.864866312
  Force two-norm initial, final = 2.53691e-06 9.16004e-05
  Force max component initial, final = 1.48741e-06 5.95259e-05
  Final line search alpha, max atom move = 0 0
  Iterations, force evaluations = 727 727

MPI task timing breakdown:
Section |  min time  |  avg time  |  max time  |%varavg| %total
---------------------------------------------------------------
Pair    | 171.9      | 310.09     | 420.55     | 409.4 | 72.60
Neigh   | 0          | 0          | 0          |   0.0 |  0.00
Comm    | 0.0764     | 110.54     | 248.73     | 685.7 | 25.88
Output  | 0.12805    | 0.12867    | 0.12941    |   0.1 |  0.03
Modify  | 5.4825     | 5.4832     | 5.4842     |   0.0 |  1.28
Other   |            | 0.876      |            |       |  0.21

Nlocal:    5.29167 ave 7 max 3 min
Histogram: 4 0 0 0 0 8 0 9 0 3
Nghost:    756.375 ave 794 max 714 min
Histogram: 8 0 0 0 0 2 6 0 0 8
Neighs:    0 ave 0 max 0 min
Histogram: 24 0 0 0 0 0 0 0 0 0
FullNghs:  1069.5 ave 1407 max 611 min
Histogram: 4 0 0 0 4 4 0 9 0 3

Total # of neighbors = 25668
Ave neighs/atom = 202.11
Neighbor list builds = 0
Dangerous builds = 0
Total wall time: 0:22:05
