LAMMPS (12 Dec 2018)
Processor partition = 0
units         metal
atom_style    atomic
neighbor      1.0 bin
neigh_modify  every 1 delay 0 check yes

boundary        p p p
atom_modify map array sort 0 0.0
variable	u uloop 8

read_data   initial.lammps
  orthogonal box = (0 0 0) to (10.0025 12.3537 10.615)
  2 by 4 by 3 MPI processor grid
  reading atoms ...
  127 atoms
pair_style  hybrid/overlay nnp3v nnp3v_vf
pair_coeff  * * nnp3v lammps-force.nnp Li P O
Reading potential file lammps-force.nnp with DATE: 20201105
pair_coeff  * * nnp3v_vf lammps_rot.nnp Li P O
Reading potential file lammps_rot.nnp with DATE: 20211226
min_style   quickmin
minimize    1.0e-6 1.0e-4 1000 10000
Neighbor list info ...
  update every 1 steps, delay 0 steps, check yes
  max neighbors/atom: 2000, page size: 100000
  master list distance cutoff = 8
  ghost atom cutoff = 8
  binsize = 4, bins = 3 4 3
  2 neighbor lists, perpetual/occasional/extra = 2 0 0
  (1) pair nnp3v, perpetual
      attributes: full, newton on
      pair build: full/bin/atomonly
      stencil: full/bin/3d
      bin: standard
  (2) pair nnp3v_vf, perpetual, copy from (1)
      attributes: full, newton on
      pair build: copy
      stencil: none
      bin: none
Per MPI rank memory allocation (min/avg/max) = 3.111 | 3.226 | 3.362 Mbytes
Step Temp E_pair E_mol TotEng Press 
       0            0   -796.79482            0   -796.79482    13324.103 
      24   0.66844098   -796.99042            0   -796.97954    13893.519 
Loop time of 14.4505 on 24 procs for 24 steps with 127 atoms

98.5% CPU use with 24 MPI tasks x no OpenMP threads

Minimization stats:
  Stopping criterion = energy tolerance
  Energy initial, next-to-last, final = 
        -796.794816724     -796.990398619     -796.990424995
  Force two-norm initial, final = 1.98977 0.177561
  Force max component initial, final = 0.330078 0.036579
  Final line search alpha, max atom move = 0 0
  Iterations, force evaluations = 24 24

MPI task timing breakdown:
Section |  min time  |  avg time  |  max time  |%varavg| %total
---------------------------------------------------------------
Pair    | 5.9886     | 10.673     | 14.448     |  77.7 | 73.86
Neigh   | 0          | 0          | 0          |   0.0 |  0.00
Comm    | 0.0016723  | 3.776      | 8.4608     | 130.6 | 26.13
Output  | 0          | 0          | 0          |   0.0 |  0.00
Modify  | 0          | 0          | 0          |   0.0 |  0.00
Other   |            | 0.001108   |            |       |  0.01

Nlocal:    5.29167 ave 7 max 3 min
Histogram: 4 0 0 0 0 9 0 7 0 4
Nghost:    759.125 ave 797 max 714 min
Histogram: 7 1 0 0 0 2 6 0 0 8
Neighs:    0 ave 0 max 0 min
Histogram: 24 0 0 0 0 0 0 0 0 0
FullNghs:  1068 ave 1413 max 614 min
Histogram: 4 0 0 0 5 4 0 7 0 4

Total # of neighbors = 25632
Ave neighs/atom = 201.827
Neighbor list builds = 0
Dangerous builds = 0

reset_timestep	0

#timestep   0.001
#velocity   all create 1000 87287

dump   1 all atom 1 dump.neb.$u
dump   1 all atom 1 dump.neb.1
fix    2 all neb 1.0 parallel neigh
dump   2 all atom 1 test.dump

thermo          1
neb 0.00000000001 0.0 10000 5000 1 final final.lammps
Per MPI rank memory allocation (min/avg/max) = 5.112 | 5.226 | 5.362 Mbytes
Step Temp E_pair E_mol TotEng Press 
       0            0   -796.99042            0   -796.99042    13884.654 
       1 0.00077320095   -796.99042            0   -796.99041    13884.664 
       2 0.0041830965   -796.99043            0   -796.99037    13884.592 
       3  0.012113254   -796.99046            0   -796.99026    13884.512 
       4  0.030000732   -796.99051            0   -796.99002    13884.694 
       5  0.070907727   -796.99064            0   -796.98949    13885.852 
       6   0.16266857   -796.99095            0    -796.9883     13889.35 
       7   0.35821439   -796.99152            0   -796.98569    13896.663 
       8   0.70802004   -796.99233            0    -796.9808    13907.924 
       9    1.2493447   -796.99336            0   -796.97301    13923.532 
      10    1.9618162   -796.99463            0   -796.96268    13943.483 
      11    1.7916365   -796.99572            0   -796.96654    13950.115 
      12 0.0080448609   -796.99579            0   -796.99566    13926.986 
      13  0.014224826   -796.99588            0   -796.99565    13927.818 
      14  0.025987576   -796.99601            0   -796.99559    13929.025 
      15  0.045376819   -796.99618            0   -796.99544    13930.681 
      16  0.064990148   -796.99638            0   -796.99532    13932.588 
      17  0.082384767    -796.9966            0   -796.99526    13934.649 
      18   0.10134102   -796.99685            0    -796.9952    13936.918 
      19   0.12268289   -796.99712            0   -796.99512    13939.417 
      20   0.14657921   -796.99741            0   -796.99502    13942.148 
      21   0.17316829   -796.99773            0   -796.99491    13945.114 
      22    0.2025831   -796.99807            0   -796.99477    13948.316 
      23    0.2349493   -796.99843            0    -796.9946    13951.753 
      24   0.27038292   -796.99881            0    -796.9944    13955.426 
      25   0.30899194   -796.99921            0   -796.99418    13959.331 
      26   0.35087736   -796.99963            0   -796.99392    13963.467 
      27   0.39613211   -797.00007            0   -796.99362    13967.831 
      28   0.44484492   -797.00053            0   -796.99328    13972.421 
      29   0.49710813     -797.001            0    -796.9929    13977.232 
      30   0.55300915   -797.00148            0   -796.99247    13982.261 
      31   0.61264134   -797.00198            0     -796.992      13987.5 
      32   0.67610561   -797.00249            0   -796.99148    13992.943 
      33   0.74351916   -797.00301            0    -796.9909    13998.578 
      34   0.81494918   -797.00355            0   -796.99027    14004.421 
      35    0.8905956   -797.00409            0   -796.98958    14010.384 
      36   0.96887909   -797.00463            0   -796.98885    14016.718 
      37    1.0281104   -797.00519            0   -796.98844    14021.877 
      38   0.63545014   -797.00554            0   -796.99519    14023.082 
      39 0.00017793569   -797.00554            0   -797.00554    14014.657 
      40 0.00057651674   -797.00555            0   -797.00554    14014.608 
      41 0.0012605924   -797.00556            0   -797.00554    14014.515 
      42 0.0022914867   -797.00558            0   -797.00555    14014.392 
      43 0.0038220276   -797.00561            0   -797.00555    14014.274 
      44 0.0061743625   -797.00565            0   -797.00555    14014.222 
      45   0.00968731    -797.0057            0   -797.00554    14014.331 
      46  0.013792668   -797.00576            0   -797.00553    14014.671 
      47  0.017633143   -797.00582            0   -797.00553    14015.211 
      48  0.021574661   -797.00589            0   -797.00554    14015.892 
      49  0.025887852   -797.00597            0   -797.00555     14016.67 
      50  0.030605203   -797.00605            0   -797.00555    14017.526 
      51   0.03572686   -797.00614            0   -797.00556    14018.453 
      52   0.04125381   -797.00624            0   -797.00557    14019.447 
      53  0.047187998   -797.00634            0   -797.00557     14020.51 
      54  0.053531494   -797.00645            0   -797.00558    14021.639 
      55  0.060286714   -797.00656            0   -797.00558    14022.834 
      56  0.067455951   -797.00669            0   -797.00559    14024.094 
      57   0.07504155   -797.00681            0   -797.00559    14025.417 
      58  0.083045868   -797.00694            0   -797.00559    14026.801 
      59  0.091471359   -797.00708            0   -797.00559    14028.243 
      60   0.10032002   -797.00722            0   -797.00559    14029.744 
      61   0.10959428   -797.00736            0   -797.00558    14031.302 
      62   0.11929596   -797.00751            0   -797.00557    14032.912 
      63   0.12942735   -797.00767            0   -797.00556    14034.575 
      64    0.1399909   -797.00782            0   -797.00554    14036.285 
      65   0.15098855   -797.00798            0   -797.00553    14038.042 
      66    0.1624228   -797.00815            0    -797.0055    14039.843 
      67   0.17429677   -797.00832            0   -797.00548    14041.685 
      68   0.18661164   -797.00849            0   -797.00545    14043.565 
      69   0.19937268   -797.00866            0   -797.00541     14045.48 
      70   0.21257988   -797.00884            0   -797.00537    14047.429 
      71    0.2262471   -797.00901            0   -797.00533    14049.404 
      72   0.24034112   -797.00919            0   -797.00528    14051.418 
      73   0.25486783   -797.00937            0   -797.00522    14053.412 
      74   0.26850455   -797.00955            0   -797.00518     14055.54 
      75   0.26795506   -797.00972            0   -797.00536    14056.926 
      76   0.13544119   -797.00984            0   -797.00764    14057.337 
      77 0.0012669809   -797.00985            0   -797.00983    14055.483 
      78 0.0020517031   -797.00986            0   -797.00983    14055.432 
      79  0.003189131   -797.00988            0   -797.00982    14055.437 
      80 0.0046337267    -797.0099            0   -797.00982    14055.536 
      81 0.0061205803   -797.00992            0   -797.00982    14055.733 
      82 0.0076388835   -797.00994            0   -797.00982    14056.002 
      83 0.0092930656   -797.00997            0   -797.00982    14056.318 
      84  0.011109016   -797.01001            0   -797.00983     14056.67 
      85  0.013087075   -797.01004            0   -797.00983    14057.053 
      86  0.015226191   -797.01008            0   -797.00983    14057.465 
      87  0.017525731   -797.01012            0   -797.00983    14057.907 
      88  0.019985193   -797.01016            0   -797.00984    14058.378 
      89  0.022604099   -797.01021            0   -797.00984    14058.877 
      90  0.025381953   -797.01026            0   -797.00984    14059.404 
      91  0.028318225    -797.0103            0   -797.00984    14059.955 
      92  0.031412195   -797.01035            0   -797.00984    14060.532 
      93  0.034663542    -797.0104            0   -797.00984    14061.134 
      94  0.038071663   -797.01046            0   -797.00984    14061.761 
      95  0.041636183   -797.01051            0   -797.00983    14062.412 
      96  0.045356566   -797.01057            0   -797.00983    14063.085 
      97  0.049232315   -797.01063            0   -797.00983     14063.78 
      98  0.053263082   -797.01069            0   -797.00982    14064.496 
      99    0.0574486   -797.01075            0   -797.00982    14065.232 
     100  0.061788299   -797.01082            0   -797.00981    14065.987 
     101  0.066281905   -797.01088            0    -797.0098     14066.76 
     102  0.070929209   -797.01095            0   -797.00979     14067.55 
     103  0.075730329   -797.01102            0   -797.00978    14068.356 
     104  0.080684943   -797.01109            0   -797.00977    14069.178 
     105  0.085793924   -797.01116            0   -797.00976    14070.012 
     106  0.091056089   -797.01123            0   -797.00974    14070.861 
     107  0.096474698    -797.0113            0   -797.00973    14071.716 
     108   0.10203911   -797.01137            0   -797.00971    14072.596 
     109   0.10775037   -797.01145            0   -797.00969    14073.445 
     110   0.11330979   -797.01152            0   -797.00968    14074.424 
     111   0.11636856    -797.0116            0    -797.0097    14074.961 
     112  0.091780224   -797.01166            0   -797.01017    14076.217 
     113  0.011676468   -797.01168            0   -797.01149     14074.56 
     114 0.0056626629    -797.0117            0   -797.01161    14074.782 
     115 0.0066621272   -797.01172            0   -797.01161    14074.982 
     116 0.0077514757   -797.01173            0   -797.01161    14075.185 
     117 0.0089216318   -797.01175            0   -797.01161    14075.403 
     118  0.010172501   -797.01177            0   -797.01161    14075.635 
     119  0.011503675   -797.01179            0   -797.01161    14075.881 
     120  0.012914722   -797.01182            0   -797.01161    14076.141 
     121  0.014405195   -797.01184            0   -797.01161    14076.414 
     122  0.015974628   -797.01187            0   -797.01161    14076.701 
     123  0.017622534   -797.01189            0    -797.0116        14077 
     124  0.019348418   -797.01192            0    -797.0116    14077.311 
     125   0.02115177   -797.01195            0    -797.0116    14077.635 
     126  0.023032073   -797.01198            0    -797.0116     14077.97 
     127  0.024988803   -797.01201            0    -797.0116    14078.317 
     128  0.027021437   -797.01204            0    -797.0116    14078.675 
     129  0.029129476   -797.01207            0   -797.01159    14079.043 
     130  0.031312389    -797.0121            0   -797.01159    14079.422 
     131  0.033569665   -797.01214            0   -797.01159     14079.81 
     132   0.03590078   -797.01217            0   -797.01159    14080.208 
     133  0.038305243   -797.01221            0   -797.01158    14080.615 
     134  0.040782584   -797.01225            0   -797.01158     14081.03 
     135  0.043332419   -797.01228            0   -797.01158    14081.452 
     136  0.045954231   -797.01232            0   -797.01157    14081.882 
     137  0.048647588   -797.01236            0   -797.01157     14082.32 
     138  0.051412112    -797.0124            0   -797.01156    14082.763 
     139  0.054247314   -797.01244            0   -797.01155    14083.214 
     140  0.057152344   -797.01248            0   -797.01155    14083.664 
     141  0.060117047   -797.01252            0   -797.01154     14084.14 
     142  0.063046449   -797.01256            0   -797.01153    14084.552 
     143  0.064736249    -797.0126            0   -797.01154    14085.159 
     144  0.052342972   -797.01263            0   -797.01178     14084.88 
     145 0.0062485715   -797.01264            0   -797.01254    14084.856 
     146  0.002241042   -797.01265            0   -797.01261     14084.79 
     147 0.0027811631   -797.01266            0   -797.01261    14084.856 
     148 0.0032913664   -797.01266            0   -797.01261    14084.947 
     149 0.0038424851   -797.01267            0   -797.01261    14085.048 
     150 0.0044354048   -797.01268            0   -797.01261    14085.157 
     151 0.0050698224   -797.01269            0   -797.01261    14085.274 
     152 0.0057454527    -797.0127            0   -797.01261    14085.397 
     153 0.0064619906   -797.01272            0   -797.01261    14085.528 
     154  0.007219127   -797.01273            0   -797.01261    14085.666 
     155 0.0080165344   -797.01274            0   -797.01261    14085.811 
     156 0.0088538359   -797.01275            0   -797.01261    14085.963 
     157 0.0097306591   -797.01277            0   -797.01261    14086.121 
     158  0.010646616   -797.01278            0   -797.01261    14086.286 
     159  0.011601305    -797.0128            0   -797.01261    14086.458 
     160  0.012594309   -797.01281            0   -797.01261    14086.635 
     161  0.013625211   -797.01283            0    -797.0126    14086.819 
     162  0.014693552   -797.01284            0    -797.0126    14087.008 
     163  0.015798886   -797.01286            0    -797.0126    14087.203 
     164   0.01694075   -797.01288            0    -797.0126    14087.404 
     165  0.018118672    -797.0129            0    -797.0126     14087.61 
     166   0.01933218   -797.01291            0    -797.0126    14087.821 
     167  0.020580772   -797.01293            0    -797.0126    14088.037 
     168  0.021863983   -797.01295            0    -797.0126    14088.257 
     169  0.023181312   -797.01297            0   -797.01259    14088.483 
     170  0.024532239   -797.01299            0   -797.01259    14088.712 
     171  0.025916231   -797.01301            0   -797.01259    14088.946 
     172  0.027332811   -797.01303            0   -797.01259    14089.183 
     173  0.028781333   -797.01305            0   -797.01258    14089.425 
     174  0.030261033   -797.01307            0   -797.01258    14089.668 
     175  0.031765797   -797.01309            0   -797.01257    14089.917 
     176  0.033245234   -797.01311            0   -797.01257     14090.16 
     177  0.034078989   -797.01313            0   -797.01258    14090.422 
     178  0.027832469   -797.01315            0    -797.0127    14090.479 
     179 0.0037055601   -797.01316            0    -797.0131      14090.3 
     180 0.00095796232   -797.01316            0   -797.01315    14090.283 
     181 0.0012617247   -797.01317            0   -797.01315    14090.322 
     182 0.0015177491   -797.01317            0   -797.01315    14090.369 
     183 0.0017906185   -797.01317            0   -797.01315    14090.421 
     184 0.0020854456   -797.01318            0   -797.01315    14090.478 
     185 0.0024021283   -797.01318            0   -797.01315    14090.538 
     186  0.002740481   -797.01319            0   -797.01314    14090.603 
     187 0.0031003088    -797.0132            0   -797.01314    14090.672 
     188 0.0034814039    -797.0132            0   -797.01314    14090.744 
     189 0.0038835459   -797.01321            0   -797.01314    14090.821 
     190 0.0043065019   -797.01321            0   -797.01314    14090.902 
     191 0.0047500271   -797.01322            0   -797.01314    14090.986 
     192 0.0052138631   -797.01323            0   -797.01314    14091.075 
     193 0.0056977415   -797.01324            0   -797.01314    14091.167 
     194 0.0062013827   -797.01324            0   -797.01314    14091.262 
     195 0.0067244953   -797.01325            0   -797.01314    14091.362 
     196 0.0072667783   -797.01326            0   -797.01314    14091.464 
     197 0.0078279221   -797.01327            0   -797.01314    14091.571 
     198 0.0084076039   -797.01328            0   -797.01314     14091.68 
     199 0.0090054909   -797.01329            0   -797.01314    14091.793 
     200 0.0096212424    -797.0133            0   -797.01314    14091.909 
     201  0.010254508   -797.01331            0   -797.01314    14092.028 
     202  0.010904931   -797.01332            0   -797.01314     14092.15 
     203  0.011572145   -797.01333            0   -797.01314    14092.275 
     204  0.012255777   -797.01334            0   -797.01314    14092.403 
     205  0.012955447   -797.01335            0   -797.01314    14092.533 
     206  0.013670772   -797.01336            0   -797.01314    14092.666 
     207  0.014401355   -797.01337            0   -797.01313    14092.802 
     208  0.015146801   -797.01338            0   -797.01313    14092.939 
     209  0.015906625   -797.01339            0   -797.01313     14093.08 
     210  0.016679748    -797.0134            0   -797.01313    14093.222 
     211    0.0174583   -797.01341            0   -797.01313    14093.366 
     212  0.018160873   -797.01342            0   -797.01313    14093.511 
     213  0.017828365   -797.01343            0   -797.01314    14093.643 
     214 0.0094327813   -797.01344            0   -797.01329    14093.617 
     215 0.00023487831   -797.01344            0   -797.01344    14093.512 
     216 0.00044864542   -797.01344            0   -797.01343    14093.537 
     217 0.00064857451   -797.01344            0   -797.01343    14093.564 
     218 0.00078909176   -797.01345            0   -797.01343    14093.592 
     219 0.00093207186   -797.01345            0   -797.01343    14093.622 
     220 0.0010863522   -797.01345            0   -797.01343    14093.655 
     221 0.0012520635   -797.01345            0   -797.01343     14093.69 
     222  0.001429094   -797.01346            0   -797.01343    14093.728 
     223 0.0016173224   -797.01346            0   -797.01343    14093.768 
     224 0.0018166194   -797.01346            0   -797.01343    14093.811 
     225 0.0020268477   -797.01346            0   -797.01343    14093.856 
     226 0.0022478621   -797.01347            0   -797.01343    14093.903 
     227 0.0024795101   -797.01347            0   -797.01343    14093.953 
     228 0.0027216312   -797.01348            0   -797.01343    14094.005 
     229 0.0029740596   -797.01348            0   -797.01343    14094.059 
     230 0.0032366186   -797.01348            0   -797.01343    14094.116 
     231  0.003509126   -797.01349            0   -797.01343    14094.175 
     232  0.003791393   -797.01349            0   -797.01343    14094.235 
     233 0.0040832241    -797.0135            0   -797.01343    14094.298 
     234 0.0043844173    -797.0135            0   -797.01343    14094.364 
     235 0.0046947644   -797.01351            0   -797.01343    14094.431 
     236 0.0050140507   -797.01351            0   -797.01343      14094.5 
     237 0.0053420571   -797.01352            0   -797.01343    14094.571 
     238 0.0056785579   -797.01352            0   -797.01343    14094.644 
     239 0.0060233227   -797.01353            0   -797.01343    14094.719 
     240 0.0063761161   -797.01353            0   -797.01343    14094.795 
     241 0.0067366985   -797.01354            0   -797.01343    14094.874 
     242  0.007104829   -797.01354            0   -797.01343    14094.954 
     243 0.0074802591   -797.01355            0   -797.01342    14095.036 
     244 0.0078627342   -797.01355            0   -797.01342    14095.119 
     245 0.0082519799   -797.01356            0   -797.01342    14095.205 
     246 0.0086475667   -797.01356            0   -797.01342    14095.291 
     247  0.009047494   -797.01357            0   -797.01342    14095.379 
     248 0.0094327134   -797.01357            0   -797.01342    14095.469 
     249 0.0095826815   -797.01358            0   -797.01342    14095.555 
     250 0.0073075587   -797.01359            0   -797.01347    14095.598 
     251 0.00069917363   -797.01359            0   -797.01358    14095.532 
     252 0.00048262804   -797.01359            0   -797.01358    14095.547 
     253 0.00056488244   -797.01359            0   -797.01358    14095.567 
     254 0.00065250681   -797.01359            0   -797.01358    14095.589 
     255 0.00074619145   -797.01359            0   -797.01358    14095.613 
     256 0.00084586322   -797.01359            0   -797.01358    14095.638 
     257 0.00095144537    -797.0136            0   -797.01358    14095.664 
     258 0.0010628565    -797.0136            0   -797.01358    14095.693 
     259 0.0011800103    -797.0136            0   -797.01358    14095.722 
     260 0.0013028163    -797.0136            0   -797.01358    14095.754 
     261  0.001431179    -797.0136            0   -797.01358    14095.786 
     262  0.001564999   -797.01361            0   -797.01358     14095.82 
     263 0.0017041722   -797.01361            0   -797.01358    14095.856 
     264 0.0018485907   -797.01361            0   -797.01358    14095.893 
     265 0.0019981429   -797.01361            0   -797.01358    14095.931 
     266 0.0021527122   -797.01361            0   -797.01358    14095.971 
     267 0.0023121787   -797.01362            0   -797.01358    14096.012 
     268 0.0024764189   -797.01362            0   -797.01358    14096.055 
     269 0.0026453059   -797.01362            0   -797.01358    14096.099 
     270 0.0028187095   -797.01363            0   -797.01358    14096.144 
     271 0.0029964966   -797.01363            0   -797.01358     14096.19 
     272  0.003178532   -797.01363            0   -797.01358    14096.238 
     273 0.0033646773   -797.01363            0   -797.01358    14096.287 
     274 0.0035547903   -797.01364            0   -797.01358    14096.337 
     275 0.0037487247   -797.01364            0   -797.01358    14096.388 
     276 0.0039463352   -797.01364            0   -797.01358    14096.441 
     277 0.0041474693   -797.01365            0   -797.01358    14096.494 
     278 0.0043519709   -797.01365            0   -797.01358    14096.549 
     279 0.0045595668   -797.01365            0   -797.01358    14096.605 
     280 0.0047691143   -797.01366            0   -797.01358    14096.662 
     281  0.004969595   -797.01366            0   -797.01358    14096.718 
     282 0.0050394909   -797.01366            0   -797.01358     14096.78 
     283 0.0038223522   -797.01367            0    -797.0136    14096.792 
     284 0.00038785974   -797.01367            0   -797.01366    14096.779 
     285 0.00026462414   -797.01367            0   -797.01366    14096.786 
     286 0.00030935594   -797.01367            0   -797.01366    14096.799 
     287 0.00035721424   -797.01367            0   -797.01366    14096.814 
     288 0.00040836088   -797.01367            0   -797.01366     14096.83 
     289 0.00046275414   -797.01367            0   -797.01366    14096.846 
     290 0.00052034894   -797.01367            0   -797.01366    14096.864 
     291 0.00058109744   -797.01367            0   -797.01366    14096.883 
     292 0.00064494908   -797.01367            0   -797.01366    14096.903 
     293 0.00071185061   -797.01367            0   -797.01366    14096.923 
     294 0.00078174624   -797.01368            0   -797.01366    14096.945 
     295 0.00085457759   -797.01368            0   -797.01366    14096.968 
     296 0.00093028384   -797.01368            0   -797.01366    14096.992 
     297 0.0010088018   -797.01368            0   -797.01366    14097.016 
     298 0.0010900658   -797.01368            0   -797.01366    14097.042 
     299 0.0011740083   -797.01368            0   -797.01366    14097.069 
     300 0.0012605592   -797.01368            0   -797.01366    14097.096 
     301 0.0013496464   -797.01369            0   -797.01366    14097.125 
     302 0.0014411961   -797.01369            0   -797.01366    14097.154 
     303 0.0015351323   -797.01369            0   -797.01366    14097.185 
     304 0.0016313774   -797.01369            0   -797.01366    14097.216 
     305 0.0017298521   -797.01369            0   -797.01366    14097.248 
     306 0.0018304756   -797.01369            0   -797.01366    14097.281 
     307 0.0019331666    -797.0137            0   -797.01366    14097.314 
     308 0.0020378417    -797.0137            0   -797.01366    14097.349 
     309 0.0021444153    -797.0137            0   -797.01366    14097.384 
     310 0.0022528024    -797.0137            0   -797.01366    14097.421 
     311 0.0023629063    -797.0137            0   -797.01366    14097.458 
     312 0.0024745998   -797.01371            0   -797.01366    14097.495 
     313 0.0025872798   -797.01371            0   -797.01367    14097.534 
     314 0.0026959785   -797.01371            0   -797.01367    14097.572 
     315 0.0027445443   -797.01371            0   -797.01367    14097.616 
     316  0.002187443   -797.01371            0   -797.01368    14097.624 
     317 0.00028713034   -797.01371            0   -797.01371     14097.63 
     318 9.8869375e-05   -797.01371            0   -797.01371     14097.63 
     319 0.00012411444   -797.01371            0   -797.01371    14097.637 
     320 0.00014673483   -797.01371            0   -797.01371    14097.645 
     321 0.00017105252   -797.01371            0   -797.01371    14097.654 
     322 0.00019715834   -797.01372            0   -797.01371    14097.664 
     323 0.00022502907   -797.01372            0   -797.01371    14097.675 
     324 0.00025464044   -797.01372            0   -797.01371    14097.687 
     325 0.00028596661   -797.01372            0   -797.01371    14097.699 
     326 0.00031898018   -797.01372            0   -797.01371    14097.712 
     327 0.00035365225   -797.01372            0   -797.01371    14097.725 
     328 0.0003899524   -797.01372            0   -797.01371     14097.74 
     329 0.00042784878   -797.01372            0   -797.01371    14097.755 
     330 0.00046730813   -797.01372            0   -797.01371     14097.77 
     331 0.0005082958   -797.01372            0   -797.01371    14097.786 
     332 0.00055077582   -797.01372            0   -797.01371    14097.803 
     333 0.00059471094   -797.01372            0   -797.01371    14097.821 
     334 0.00064006267   -797.01372            0   -797.01371    14097.839 
     335 0.00068679127   -797.01372            0   -797.01371    14097.858 
     336 0.00073485599   -797.01373            0   -797.01371    14097.878 
     337 0.00078421493   -797.01373            0   -797.01371    14097.898 
     338 0.00083482517   -797.01373            0   -797.01371    14097.919 
     339 0.00088664286   -797.01373            0   -797.01371     14097.94 
     340 0.00093962322   -797.01373            0   -797.01371    14097.962 
     341 0.00099372067   -797.01373            0   -797.01371    14097.985 
     342 0.0010488889   -797.01373            0   -797.01371    14098.008 
     343 0.0011050807   -797.01373            0   -797.01371    14098.032 
     344 0.0011622487   -797.01373            0   -797.01371    14098.057 
     345 0.0012203446   -797.01373            0   -797.01371    14098.082 
     346 0.0012793197   -797.01374            0   -797.01372    14098.107 
     347 0.0013391237   -797.01374            0   -797.01372    14098.133 
     348 0.0013996968   -797.01374            0   -797.01372     14098.16 
     349 0.0014608778   -797.01374            0   -797.01372    14098.187 
     350 0.0015214592   -797.01374            0   -797.01372    14098.214 
     351 0.0015674448   -797.01374            0   -797.01372    14098.242 
     352 0.0014346136   -797.01374            0   -797.01372    14098.267 
     353 0.00040883833   -797.01374            0   -797.01374    14098.265 
     354 6.6345963e-06   -797.01374            0   -797.01374    14098.261 
     355 1.1721834e-05   -797.01374            0   -797.01374    14098.264 
     356 1.9355431e-05   -797.01374            0   -797.01374    14098.267 
     357 2.836128e-05   -797.01374            0   -797.01374     14098.27 
     358 3.7307643e-05   -797.01374            0   -797.01374    14098.274 
     359 4.6468217e-05   -797.01374            0   -797.01374    14098.279 
     360 5.6375237e-05   -797.01374            0   -797.01374    14098.284 
     361 6.7184924e-05   -797.01375            0   -797.01374    14098.289 
     362 7.8909904e-05   -797.01375            0   -797.01374    14098.295 
     363 9.1540999e-05   -797.01375            0   -797.01374    14098.301 
     364 0.00010506686   -797.01375            0   -797.01374    14098.308 
     365 0.00011947528   -797.01375            0   -797.01374    14098.316 
     366 0.00013475319   -797.01375            0   -797.01374    14098.323 
     367 0.00015088672   -797.01375            0   -797.01374    14098.332 
     368 0.0001678612   -797.01375            0   -797.01374    14098.341 
     369 0.00018566117   -797.01375            0   -797.01374     14098.35 
     370 0.00020427041   -797.01375            0   -797.01374    14098.359 
     371 0.00022367195   -797.01375            0   -797.01374     14098.37 
     372 0.00024384808   -797.01375            0   -797.01375     14098.38 
     373 0.0002647805   -797.01375            0   -797.01375    14098.391 
     374 0.00028645009   -797.01375            0   -797.01375    14098.403 
     375 0.0003088371   -797.01375            0   -797.01375    14098.415 
     376 0.00033192118   -797.01375            0   -797.01375    14098.427 
     377 0.00035568138   -797.01375            0   -797.01375     14098.44 
     378 0.00038009617   -797.01375            0   -797.01375    14098.453 
     379 0.00040514348   -797.01375            0   -797.01375    14098.467 
     380 0.00043080074   -797.01375            0   -797.01375    14098.481 
     381 0.0004570449   -797.01375            0   -797.01375    14098.496 
     382 0.00048385268   -797.01375            0   -797.01375    14098.511 
     383 0.00051120013   -797.01376            0   -797.01375    14098.526 
     384 0.00053906285   -797.01376            0   -797.01375    14098.542 
     385 0.00056741624   -797.01376            0   -797.01375    14098.558 
     386 0.00059623541   -797.01376            0   -797.01375    14098.574 
     387 0.00062549519   -797.01376            0   -797.01375    14098.591 
     388 0.00065517026   -797.01376            0   -797.01375    14098.609 
     389 0.00068523463   -797.01376            0   -797.01375    14098.626 
     390 0.00071566014   -797.01376            0   -797.01375    14098.644 
     391 0.00074639055   -797.01376            0   -797.01375    14098.663 
     392 0.00077708105   -797.01376            0   -797.01375    14098.681 
     393 0.00080379787   -797.01376            0   -797.01375      14098.7 
     394 0.00077742958   -797.01376            0   -797.01375    14098.719 
     395 0.0003522222   -797.01376            0   -797.01376    14098.724 
     396 4.2379089e-06   -797.01376            0   -797.01376    14098.721 
     397 7.7228841e-06   -797.01376            0   -797.01376    14098.723 
     398 1.3119327e-05   -797.01376            0   -797.01376    14098.725 
     399 1.8796285e-05   -797.01376            0   -797.01376    14098.728 
     400 2.3771385e-05   -797.01376            0   -797.01376    14098.731 
     401 2.8803695e-05   -797.01376            0   -797.01376    14098.735 
     402 3.4244634e-05   -797.01376            0   -797.01376    14098.738 
     403 4.0136603e-05   -797.01376            0   -797.01376    14098.742 
     404 4.6476861e-05   -797.01376            0   -797.01376    14098.747 
     405 5.3259625e-05   -797.01376            0   -797.01376    14098.751 
     406 6.0478603e-05   -797.01376            0   -797.01376    14098.756 
     407 6.8127073e-05   -797.01376            0   -797.01376    14098.762 
     408 7.6197898e-05   -797.01377            0   -797.01376    14098.767 
     409 8.4683533e-05   -797.01377            0   -797.01376    14098.773 
     410 9.3576038e-05   -797.01377            0   -797.01376     14098.78 
     411 0.00010286709   -797.01377            0   -797.01376    14098.786 
     412 0.00011254797   -797.01377            0   -797.01376    14098.793 
     413 0.00012260963   -797.01377            0   -797.01376      14098.8 
     414 0.00013304262   -797.01377            0   -797.01376    14098.808 
     415 0.0001438372   -797.01377            0   -797.01376    14098.816 
     416 0.00015498326   -797.01377            0   -797.01376    14098.824 
     417 0.00016647038   -797.01377            0   -797.01376    14098.832 
     418 0.00017828785   -797.01377            0   -797.01376    14098.841 
     419 0.00019042465   -797.01377            0   -797.01377     14098.85 
     420 0.00020286953   -797.01377            0   -797.01377    14098.859 
     421 0.00021561097   -797.01377            0   -797.01377    14098.869 
     422 0.0002286372   -797.01377            0   -797.01377    14098.879 
     423 0.00024193623   -797.01377            0   -797.01377    14098.889 
     424 0.00025549586   -797.01377            0   -797.01377    14098.899 
     425 0.00026930372   -797.01377            0   -797.01377     14098.91 
     426 0.00028334727   -797.01377            0   -797.01377    14098.921 
     427 0.00029761381   -797.01377            0   -797.01377    14098.932 
     428 0.00031209052   -797.01377            0   -797.01377    14098.944 
     429 0.00032676449   -797.01377            0   -797.01377    14098.956 
     430 0.00034162267   -797.01377            0   -797.01377    14098.968 
     431 0.00035665156   -797.01377            0   -797.01377     14098.98 
     432 0.00037183304   -797.01377            0   -797.01377    14098.993 
     433 0.00038709735   -797.01377            0   -797.01377    14099.005 
     434 0.00040170392   -797.01377            0   -797.01377    14099.019 
     435 0.00040572904   -797.01377            0   -797.01377    14099.031 
     436 0.00028927372   -797.01378            0   -797.01377    14099.042 
     437 1.4303588e-05   -797.01378            0   -797.01377     14099.04 
     438 2.274178e-05   -797.01378            0   -797.01377    14099.042 
     439 2.5959543e-05   -797.01378            0   -797.01377    14099.046 
     440 2.9547737e-05   -797.01378            0   -797.01377    14099.049 
     441 3.3357643e-05   -797.01378            0   -797.01378    14099.053 
     442 3.738235e-05   -797.01378            0   -797.01378    14099.056 
     443 4.1617803e-05   -797.01378            0   -797.01378    14099.061 
     444 4.6059942e-05   -797.01378            0   -797.01378    14099.065 
     445 5.0704518e-05   -797.01378            0   -797.01378    14099.069 
     446 5.554709e-05   -797.01378            0   -797.01378    14099.074 
     447 6.0583027e-05   -797.01378            0   -797.01378    14099.079 
     448 6.5807514e-05   -797.01378            0   -797.01378    14099.084 
     449 7.1215556e-05   -797.01378            0   -797.01378     14099.09 
     450 7.6801987e-05   -797.01378            0   -797.01378    14099.095 
     451 8.2561476e-05   -797.01378            0   -797.01378    14099.101 
     452 8.8488533e-05   -797.01378            0   -797.01378    14099.107 
     453 9.4577517e-05   -797.01378            0   -797.01378    14099.113 
     454 0.00010082264   -797.01378            0   -797.01378    14099.119 
     455 0.00010721795   -797.01378            0   -797.01378    14099.126 
     456 0.00011375732   -797.01378            0   -797.01378    14099.133 
     457 0.00012043419   -797.01378            0   -797.01378     14099.14 
     458 0.00012724039   -797.01378            0   -797.01378    14099.147 
     459 0.00013415951   -797.01378            0   -797.01378    14099.154 
     460 0.00014112596   -797.01378            0   -797.01378    14099.162 
     461 0.00014774705   -797.01378            0   -797.01378     14099.17 
     462 0.00015129767   -797.01378            0   -797.01378    14099.178 
     463 0.00013379811   -797.01378            0   -797.01378    14099.185 
     464 5.1523992e-05   -797.01378            0   -797.01378    14099.188 
     465 7.3571492e-06   -797.01378            0   -797.01378    14099.189 
     466 1.0386489e-05   -797.01378            0   -797.01378    14099.191 
     467 1.2239818e-05   -797.01378            0   -797.01378    14099.193 
     468 1.4206186e-05   -797.01378            0   -797.01378    14099.195 
     469 1.6312033e-05   -797.01378            0   -797.01378    14099.198 
     470 1.8555275e-05   -797.01378            0   -797.01378    14099.201 
     471 2.0933757e-05   -797.01378            0   -797.01378    14099.203 
     472 2.3445188e-05   -797.01378            0   -797.01378    14099.206 
     473 2.6087144e-05   -797.01378            0   -797.01378     14099.21 
     474 2.8857073e-05   -797.01378            0   -797.01378    14099.213 
     475 3.1752296e-05   -797.01378            0   -797.01378    14099.216 
     476 3.4770008e-05   -797.01378            0   -797.01378     14099.22 
     477 3.7907289e-05   -797.01378            0   -797.01378    14099.224 
     478  4.11611e-05   -797.01378            0   -797.01378    14099.228 
     479 4.4528289e-05   -797.01378            0   -797.01378    14099.232 
     480 4.8005599e-05   -797.01378            0   -797.01378    14099.236 
     481 5.1589667e-05   -797.01378            0   -797.01378    14099.241 
     482 5.5277029e-05   -797.01378            0   -797.01378    14099.246 
     483 5.9064128e-05   -797.01378            0   -797.01378     14099.25 
     484 6.2947316e-05   -797.01378            0   -797.01378    14099.255 
     485 6.6922859e-05   -797.01378            0   -797.01378    14099.261 
     486 7.0986949e-05   -797.01378            0   -797.01378    14099.266 
     487 7.5135697e-05   -797.01378            0   -797.01378    14099.271 
     488 7.9365136e-05   -797.01378            0   -797.01378    14099.277 
     489 8.3671241e-05   -797.01378            0   -797.01378    14099.283 
     490 8.8049928e-05   -797.01378            0   -797.01378    14099.289 
     491 9.2497054e-05   -797.01378            0   -797.01378    14099.295 
     492  9.70084e-05   -797.01378            0   -797.01378    14099.301 
     493 0.00010157941   -797.01378            0   -797.01378    14099.307 
     494 0.00010620294   -797.01378            0   -797.01378    14099.314 
     495 0.00011084549   -797.01378            0   -797.01378     14099.32 
     496 0.00011518537   -797.01378            0   -797.01378    14099.327 
     497 0.0001155232   -797.01378            0   -797.01378    14099.334 
     498 7.8757906e-05   -797.01378            0   -797.01378    14099.339 
     499 4.7809911e-06   -797.01379            0   -797.01378    14099.339 
     500 7.255589e-06   -797.01379            0   -797.01378    14099.341 
     501 8.3386249e-06   -797.01379            0   -797.01378    14099.343 
     502 9.5279541e-06   -797.01379            0   -797.01379    14099.344 
     503 1.0792438e-05   -797.01379            0   -797.01379    14099.346 
     504 1.2130265e-05   -797.01379            0   -797.01379    14099.349 
     505  1.35401e-05   -797.01379            0   -797.01379    14099.351 
     506 1.5020556e-05   -797.01379            0   -797.01379    14099.353 
     507 1.657018e-05   -797.01379            0   -797.01379    14099.356 
     508 1.8187449e-05   -797.01379            0   -797.01379    14099.358 
     509 1.9870773e-05   -797.01379            0   -797.01379    14099.361 
     510 2.1618494e-05   -797.01379            0   -797.01379    14099.364 
     511 2.3428893e-05   -797.01379            0   -797.01379    14099.367 
     512 2.5300188e-05   -797.01379            0   -797.01379     14099.37 
     513 2.7230536e-05   -797.01379            0   -797.01379    14099.373 
     514 2.9218038e-05   -797.01379            0   -797.01379    14099.377 
     515 3.1260742e-05   -797.01379            0   -797.01379     14099.38 
     516 3.3356638e-05   -797.01379            0   -797.01379    14099.384 
     517 3.550367e-05   -797.01379            0   -797.01379    14099.387 
     518 3.7699724e-05   -797.01379            0   -797.01379    14099.391 
     519 3.9942625e-05   -797.01379            0   -797.01379    14099.395 
     520 4.2230015e-05   -797.01379            0   -797.01379    14099.399 
     521 4.4558901e-05   -797.01379            0   -797.01379    14099.403 
     522 4.6922285e-05   -797.01379            0   -797.01379    14099.408 
     523 4.9288155e-05   -797.01379            0   -797.01379    14099.412 
     524 5.1441711e-05   -797.01379            0   -797.01379    14099.416 
     525 5.1786574e-05   -797.01379            0   -797.01379    14099.421 
     526 4.0311912e-05   -797.01379            0   -797.01379    14099.425 
     527 8.8604671e-06   -797.01379            0   -797.01379    14099.426 
     528 3.2046382e-06   -797.01379            0   -797.01379    14099.427 
     529 3.9046042e-06   -797.01379            0   -797.01379    14099.428 
     530 4.5519689e-06   -797.01379            0   -797.01379    14099.429 
     531 5.2468371e-06   -797.01379            0   -797.01379    14099.431 
     532 5.9883778e-06   -797.01379            0   -797.01379    14099.432 
     533 6.7758596e-06   -797.01379            0   -797.01379    14099.434 
     534 7.6085039e-06   -797.01379            0   -797.01379    14099.435 
     535 8.4854859e-06   -797.01379            0   -797.01379    14099.437 
     536 9.4059348e-06   -797.01379            0   -797.01379    14099.439 
     537 1.0368935e-05   -797.01379            0   -797.01379    14099.441 
     538 1.1373528e-05   -797.01379            0   -797.01379    14099.443 
     539 1.2418711e-05   -797.01379            0   -797.01379    14099.445 
     540 1.3503443e-05   -797.01379            0   -797.01379    14099.448 
     541 1.4626639e-05   -797.01379            0   -797.01379     14099.45 
     542 1.5787178e-05   -797.01379            0   -797.01379    14099.452 
     543  1.69839e-05   -797.01379            0   -797.01379    14099.455 
     544 1.8215609e-05   -797.01379            0   -797.01379    14099.457 
     545 1.9481076e-05   -797.01379            0   -797.01379     14099.46 
     546 2.0779035e-05   -797.01379            0   -797.01379    14099.463 
     547 2.2108192e-05   -797.01379            0   -797.01379    14099.466 
     548 2.346722e-05   -797.01379            0   -797.01379    14099.469 
     549 2.4854763e-05   -797.01379            0   -797.01379    14099.472 
     550 2.626944e-05   -797.01379            0   -797.01379    14099.475 
     551 2.7709843e-05   -797.01379            0   -797.01379    14099.478 
     552 2.9174539e-05   -797.01379            0   -797.01379    14099.482 
     553 3.0662075e-05   -797.01379            0   -797.01379    14099.485 
     554 3.2170968e-05   -797.01379            0   -797.01379    14099.489 
     555 3.3699682e-05   -797.01379            0   -797.01379    14099.492 
     556 3.5246311e-05   -797.01379            0   -797.01379    14099.496 
     557 3.6805527e-05   -797.01379            0   -797.01379      14099.5 
     558 3.833541e-05   -797.01379            0   -797.01379    14099.504 
     559 3.9367937e-05   -797.01379            0   -797.01379    14099.507 
     560 3.475582e-05   -797.01379            0   -797.01379    14099.511 
     561 7.9962573e-06   -797.01379            0   -797.01379    14099.512 
     562 3.3648505e-07   -797.01379            0   -797.01379    14099.513 
     563 5.681783e-07   -797.01379            0   -797.01379    14099.513 
     564 8.3767925e-07   -797.01379            0   -797.01379    14099.513 
     565 1.0946121e-06   -797.01379            0   -797.01379    14099.514 
     566 1.3552871e-06   -797.01379            0   -797.01379    14099.515 
     567 1.6376244e-06   -797.01379            0   -797.01379    14099.515 
     568 1.9453856e-06   -797.01379            0   -797.01379    14099.516 
     569 2.2786303e-06   -797.01379            0   -797.01379    14099.517 
     570 2.6370381e-06   -797.01379            0   -797.01379    14099.518 
     571 3.0202512e-06   -797.01379            0   -797.01379    14099.519 
     572 3.4278854e-06   -797.01379            0   -797.01379     14099.52 
     573 3.8595305e-06   -797.01379            0   -797.01379    14099.522 
     574 4.314751e-06   -797.01379            0   -797.01379    14099.523 
     575 4.7930863e-06   -797.01379            0   -797.01379    14099.524 
     576 5.2940514e-06   -797.01379            0   -797.01379    14099.525 
     577 5.8171373e-06   -797.01379            0   -797.01379    14099.527 
     578 6.3618116e-06   -797.01379            0   -797.01379    14099.528 
     579 6.9275189e-06   -797.01379            0   -797.01379     14099.53 
     580 7.5136819e-06   -797.01379            0   -797.01379    14099.532 
     581 8.1197013e-06   -797.01379            0   -797.01379    14099.533 
     582 8.744957e-06   -797.01379            0   -797.01379    14099.535 
     583 9.3888085e-06   -797.01379            0   -797.01379    14099.537 
     584 1.0050596e-05   -797.01379            0   -797.01379    14099.539 
     585 1.072964e-05   -797.01379            0   -797.01379    14099.541 
     586 1.1425242e-05   -797.01379            0   -797.01379    14099.543 
     587 1.2136689e-05   -797.01379            0   -797.01379    14099.545 
     588 1.2863245e-05   -797.01379            0   -797.01379    14099.547 
     589 1.3604156e-05   -797.01379            0   -797.01379     14099.55 
     590 1.4358663e-05   -797.01379            0   -797.01379    14099.552 
     591 1.5125988e-05   -797.01379            0   -797.01379    14099.554 
     592 1.590534e-05   -797.01379            0   -797.01379    14099.557 
     593 1.669591e-05   -797.01379            0   -797.01379    14099.559 
     594 1.7496886e-05   -797.01379            0   -797.01379    14099.562 
     595 1.8307425e-05   -797.01379            0   -797.01379    14099.564 
     596 1.9126716e-05   -797.01379            0   -797.01379    14099.567 
     597 1.9953827e-05   -797.01379            0   -797.01379     14099.57 
     598 2.0788104e-05   -797.01379            0   -797.01379    14099.573 
     599 2.162787e-05   -797.01379            0   -797.01379    14099.576 
     600 2.2472146e-05   -797.01379            0   -797.01379    14099.578 
     601 2.3281954e-05   -797.01379            0   -797.01379    14099.582 
     602 2.3582775e-05   -797.01379            0   -797.01379    14099.583 
     603 1.6906242e-05   -797.01379            0   -797.01379    14099.591 
     604 6.4222394e-07   -797.01379            0   -797.01379    14099.588 
     605 1.070119e-06   -797.01379            0   -797.01379    14099.587 
     606 1.2021771e-06   -797.01379            0   -797.01379    14099.588 
     607 1.3830875e-06   -797.01379            0   -797.01379    14099.589 
     608 1.5761621e-06   -797.01379            0   -797.01379    14099.589 
     609 1.7810093e-06   -797.01379            0   -797.01379     14099.59 
     610 1.9974134e-06   -797.01379            0   -797.01379    14099.591 
     611 2.2251491e-06   -797.01379            0   -797.01379    14099.592 
     612 2.4639785e-06   -797.01379            0   -797.01379    14099.593 
     613 2.7136517e-06   -797.01379            0   -797.01379    14099.594 
     614 2.9739066e-06   -797.01379            0   -797.01379    14099.595 
     615 3.2444691e-06   -797.01379            0   -797.01379    14099.596 
     616 3.5250538e-06   -797.01379            0   -797.01379    14099.597 
     617 3.8153637e-06   -797.01379            0   -797.01379    14099.598 
     618 4.115091e-06   -797.01379            0   -797.01379      14099.6 
     619 4.4239169e-06   -797.01379            0   -797.01379    14099.601 
     620 4.7415123e-06   -797.01379            0   -797.01379    14099.602 
     621 5.0675377e-06   -797.01379            0   -797.01379    14099.603 
     622 5.4016436e-06   -797.01379            0   -797.01379    14099.605 
     623 5.7434709e-06   -797.01379            0   -797.01379    14099.606 
     624 6.0926511e-06   -797.01379            0   -797.01379    14099.608 
     625 6.4488049e-06   -797.01379            0   -797.01379    14099.609 
     626 6.8115426e-06   -797.01379            0   -797.01379    14099.611 
     627 7.1804386e-06   -797.01379            0   -797.01379    14099.613 
     628 7.5549337e-06   -797.01379            0   -797.01379    14099.614 
     629 7.9334784e-06   -797.01379            0   -797.01379    14099.616 
     630 8.307371e-06   -797.01379            0   -797.01379    14099.618 
     631 8.6078021e-06   -797.01379            0   -797.01379     14099.62 
     632 8.2662822e-06   -797.01379            0   -797.01379    14099.621 
     633 4.4652568e-06   -797.01379            0   -797.01379    14099.623 
     634 3.6001652e-07   -797.01379            0   -797.01379    14099.623 
     635 5.6573614e-07   -797.01379            0   -797.01379    14099.623 
     636 6.6414869e-07   -797.01379            0   -797.01379    14099.624 
     637 7.6935527e-07   -797.01379            0   -797.01379    14099.624 
     638 8.8187732e-07   -797.01379            0   -797.01379    14099.625 
     639 1.0015941e-06   -797.01379            0   -797.01379    14099.625 
     640 1.1283786e-06   -797.01379            0   -797.01379    14099.626 
     641 1.2620954e-06   -797.01379            0   -797.01379    14099.627 
     642 1.4026014e-06   -797.01379            0   -797.01379    14099.627 
     643 1.5497455e-06   -797.01379            0   -797.01379    14099.628 
     644 1.7033689e-06   -797.01379            0   -797.01379    14099.629 
     645 1.8633053e-06   -797.01379            0   -797.01379     14099.63 
     646 2.0293809e-06   -797.01379            0   -797.01379     14099.63 
     647 2.2014143e-06   -797.01379            0   -797.01379    14099.631 
     648 2.3792174e-06   -797.01379            0   -797.01379    14099.632 
     649 2.5625946e-06   -797.01379            0   -797.01379    14099.633 
     650 2.7513437e-06   -797.01379            0   -797.01379    14099.634 
     651 2.9452555e-06   -797.01379            0   -797.01379    14099.635 
     652 3.1441143e-06   -797.01379            0   -797.01379    14099.636 
     653 3.3476978e-06   -797.01379            0   -797.01379    14099.637 
     654 3.5557775e-06   -797.01379            0   -797.01379    14099.638 
     655 3.7681183e-06   -797.01379            0   -797.01379     14099.64 
     656 3.9844793e-06   -797.01379            0   -797.01379    14099.641 
     657 4.2046133e-06   -797.01379            0   -797.01379    14099.642 
     658 4.4282673e-06   -797.01379            0   -797.01379    14099.643 
     659 4.655181e-06   -797.01379            0   -797.01379    14099.645 
     660 4.8850848e-06   -797.01379            0   -797.01379    14099.646 
     661 5.1176567e-06   -797.01379            0   -797.01379    14099.647 
     662 5.3522121e-06   -797.01379            0   -797.01379    14099.649 
     663 5.5844235e-06   -797.01379            0   -797.01379     14099.65 
     664 5.7720738e-06   -797.01379            0   -797.01379    14099.652 
     665 5.4689378e-06   -797.01379            0   -797.01379    14099.653 
     666 2.3069836e-06   -797.01379            0   -797.01379    14099.654 
     667 6.3335353e-08   -797.01379            0   -797.01379    14099.654 
     668 1.154525e-07   -797.01379            0   -797.01379    14099.654 
     669 1.7394634e-07   -797.01379            0   -797.01379    14099.654 
     670 2.2121883e-07   -797.01379            0   -797.01379    14099.655 
     671 2.6785415e-07   -797.01379            0   -797.01379    14099.655 
     672 3.1832398e-07   -797.01379            0   -797.01379    14099.655 
     673 3.729595e-07   -797.01379            0   -797.01379    14099.656 
     674 4.3171034e-07   -797.01379            0   -797.01379    14099.656 
     675 4.9451222e-07   -797.01379            0   -797.01379    14099.656 
     676 5.6129595e-07   -797.01379            0   -797.01379    14099.657 
     677 6.3198759e-07   -797.01379            0   -797.01379    14099.657 
     678 7.0650842e-07   -797.01379            0   -797.01379    14099.658 
     679 7.8477506e-07   -797.01379            0   -797.01379    14099.658 
     680 8.666995e-07   -797.01379            0   -797.01379    14099.659 
     681 9.5218914e-07   -797.01379            0   -797.01379     14099.66 
     682 1.0411469e-06   -797.01379            0   -797.01379     14099.66 
     683 1.1334712e-06   -797.01379            0   -797.01379    14099.661 
     684 1.2290561e-06   -797.01379            0   -797.01379    14099.661 
     685 1.3277912e-06   -797.01379            0   -797.01379    14099.662 
     686 1.4295621e-06   -797.01379            0   -797.01379    14099.663 
     687 1.5342499e-06   -797.01379            0   -797.01379    14099.664 
     688 1.6417315e-06   -797.01379            0   -797.01379    14099.664 
     689  1.75188e-06   -797.01379            0   -797.01379    14099.665 
     690 1.864564e-06   -797.01379            0   -797.01379    14099.666 
     691 1.9796484e-06   -797.01379            0   -797.01379    14099.667 
     692 2.0969939e-06   -797.01379            0   -797.01379    14099.668 
     693 2.216457e-06   -797.01379            0   -797.01379    14099.669 
     694 2.3378909e-06   -797.01379            0   -797.01379     14099.67 
     695 2.4611437e-06   -797.01379            0   -797.01379     14099.67 
     696 2.5860611e-06   -797.01379            0   -797.01379    14099.671 
     697 2.7124821e-06   -797.01379            0   -797.01379    14099.672 
     698 2.8402471e-06   -797.01379            0   -797.01379    14099.673 
     699 2.9691792e-06   -797.01379            0   -797.01379    14099.674 
     700 3.0991316e-06   -797.01379            0   -797.01379    14099.676 
     701 3.2298598e-06   -797.01379            0   -797.01379    14099.677 
     702 3.3614072e-06   -797.01379            0   -797.01379    14099.678 
     703 3.4931822e-06   -797.01379            0   -797.01379    14099.679 
     704 3.6306472e-06   -797.01379            0   -797.01379     14099.68 
     705 3.8205764e-06   -797.01379            0   -797.01379    14099.682 
     706 4.5449857e-06   -797.01379            0   -797.01379    14099.678 
     707 1.119491e-06   -797.01379            0   -797.01379    14099.682 
     708 2.0281778e-07   -797.01379            0   -797.01379    14099.683 
     709 2.2650565e-07   -797.01379            0   -797.01379    14099.683 
     710 2.5881501e-07   -797.01379            0   -797.01379    14099.683 
     711 2.9326431e-07   -797.01379            0   -797.01379    14099.683 
     712 3.2968957e-07   -797.01379            0   -797.01379    14099.684 
     713 3.6804634e-07   -797.01379            0   -797.01379    14099.684 
     714 4.0828633e-07   -797.01379            0   -797.01379    14099.685 
     715 4.5036168e-07   -797.01379            0   -797.01379    14099.685 
     716 4.9422054e-07   -797.01379            0   -797.01379    14099.685 
     717 5.3980955e-07   -797.01379            0   -797.01379    14099.686 
     718 5.8707195e-07   -797.01379            0   -797.01379    14099.686 
     719 6.3594934e-07   -797.01379            0   -797.01379    14099.687 
     720 6.8637984e-07   -797.01379            0   -797.01379    14099.687 
     721 7.3830029e-07   -797.01379            0   -797.01379    14099.688 
     722 7.9164342e-07   -797.01379            0   -797.01379    14099.688 
     723 8.4634194e-07   -797.01379            0   -797.01379    14099.689 
     724 9.0232217e-07   -797.01379            0   -797.01379    14099.689 
     725 9.5951493e-07   -797.01379            0   -797.01379     14099.69 
     726 1.017836e-06   -797.01379            0   -797.01379    14099.691 
     727 1.0772274e-06   -797.01379            0   -797.01379    14099.691 
     728 1.1375868e-06   -797.01379            0   -797.01379    14099.692 
     729 1.1990365e-06   -797.01379            0   -797.01379    14099.692 
     730 1.2620739e-06   -797.01379            0   -797.01379    14099.693 
     731 1.3331362e-06   -797.01379            0   -797.01379    14099.693 
     732 1.4477801e-06   -797.01379            0   -797.01379    14099.697 
     733 1.5214206e-06   -797.01379            0   -797.01379    14099.691 
     734 4.126577e-07   -797.01379            0   -797.01379    14099.695 
     735 1.164882e-07   -797.01379            0   -797.01379    14099.695 
     736 1.3499122e-07   -797.01379            0   -797.01379    14099.696 
     737 1.552759e-07   -797.01379            0   -797.01379    14099.696 
     738 1.768857e-07   -797.01379            0   -797.01379    14099.696 
     739 1.9978899e-07   -797.01379            0   -797.01379    14099.696 
     740 2.2395717e-07   -797.01379            0   -797.01379    14099.697 
     741 2.4935941e-07   -797.01379            0   -797.01379    14099.697 
     742 2.759633e-07   -797.01379            0   -797.01379    14099.697 
     743 3.0373449e-07   -797.01379            0   -797.01379    14099.698 
     744 3.3263692e-07   -797.01379            0   -797.01379    14099.698 
     745 3.6263264e-07   -797.01379            0   -797.01379    14099.698 
     746 3.9368202e-07   -797.01379            0   -797.01379    14099.699 
     747 4.2574353e-07   -797.01379            0   -797.01379    14099.699 
     748 4.5877399e-07   -797.01379            0   -797.01379    14099.699 
     749 4.9272828e-07   -797.01379            0   -797.01379      14099.7 
     750 5.2755973e-07   -797.01379            0   -797.01379      14099.7 
     751 5.6321951e-07   -797.01379            0   -797.01379    14099.701 
     752 5.9965768e-07   -797.01379            0   -797.01379    14099.701 
     753 6.3682122e-07   -797.01379            0   -797.01379    14099.702 
     754 6.7465782e-07   -797.01379            0   -797.01379    14099.702 
     755 7.1310808e-07   -797.01379            0   -797.01379    14099.703 
     756 7.521231e-07   -797.01379            0   -797.01379    14099.703 
     757 7.9162509e-07   -797.01379            0   -797.01379    14099.704 
     758 8.3162368e-07   -797.01379            0   -797.01379    14099.704 
     759 8.7206597e-07   -797.01379            0   -797.01379    14099.705 
     760 9.146681e-07   -797.01379            0   -797.01379    14099.705 
     761 9.6889925e-07   -797.01379            0   -797.01379    14099.708 
     762 9.9105946e-07   -797.01379            0   -797.01379    14099.703 
     763 2.2371658e-07   -797.01379            0   -797.01379    14099.706 
     764 7.1031024e-08   -797.01379            0   -797.01379    14099.707 
     765 8.0155873e-08   -797.01379            0   -797.01379    14099.707 
     766 9.2511493e-08   -797.01379            0   -797.01379    14099.707 
     767 1.0571129e-07   -797.01379            0   -797.01379    14099.707 
     768 1.1971773e-07   -797.01379            0   -797.01379    14099.707 
     769 1.3451233e-07   -797.01379            0   -797.01379    14099.708 
     770 1.5007438e-07   -797.01379            0   -797.01379    14099.708 
     771 1.6638262e-07   -797.01379            0   -797.01379    14099.708 
     772 1.8341414e-07   -797.01379            0   -797.01379    14099.708 
     773 2.0114511e-07   -797.01379            0   -797.01379    14099.709 
     774 2.1955018e-07   -797.01379            0   -797.01379    14099.709 
     775 2.3860304e-07   -797.01379            0   -797.01379    14099.709 
     776 2.5827586e-07   -797.01379            0   -797.01379    14099.709 
     777 2.7853988e-07   -797.01379            0   -797.01379     14099.71 
     778 2.9936473e-07   -797.01379            0   -797.01379     14099.71 
     779 3.2071933e-07   -797.01379            0   -797.01379     14099.71 
     780 3.4257049e-07   -797.01379            0   -797.01379    14099.711 
     781 3.6488527e-07   -797.01379            0   -797.01379    14099.711 
     782 3.8762654e-07   -797.01379            0   -797.01379    14099.712 
     783 4.1076151e-07   -797.01379            0   -797.01379    14099.712 
     784 4.3424247e-07   -797.01379            0   -797.01379    14099.712 
     785 4.5804189e-07   -797.01379            0   -797.01379    14099.713 
     786 4.8201942e-07   -797.01379            0   -797.01379    14099.713 
     787 5.0589252e-07   -797.01379            0   -797.01379    14099.713 
     788 5.2644054e-07   -797.01379            0   -797.01379    14099.715 
     789 5.205238e-07   -797.01379            0   -797.01379    14099.713 
     790 3.2864997e-07   -797.01379            0   -797.01379    14099.716 
     791 4.0767209e-08   -797.01379            0   -797.01379    14099.715 
     792 3.3200254e-08   -797.01379            0   -797.01379    14099.715 
     793 3.6261243e-08   -797.01379            0   -797.01379    14099.715 
     794 4.297257e-08   -797.01379            0   -797.01379    14099.715 
     795 5.0295379e-08   -797.01379            0   -797.01379    14099.715 
     796 5.8156775e-08   -797.01379            0   -797.01379    14099.715 
     797 6.6545312e-08   -797.01379            0   -797.01379    14099.716 
     798 7.5448733e-08   -797.01379            0   -797.01379    14099.716 
     799 8.4853888e-08   -797.01379            0   -797.01379    14099.716 
     800 9.4746756e-08   -797.01379            0   -797.01379    14099.716 
     801 1.0511243e-07   -797.01379            0   -797.01379    14099.716 
     802 1.1593514e-07   -797.01379            0   -797.01379    14099.716 
     803 1.2719822e-07   -797.01379            0   -797.01379    14099.717 
     804 1.3888415e-07   -797.01379            0   -797.01379    14099.717 
     805 1.5097453e-07   -797.01379            0   -797.01379    14099.717 
     806 1.6345006e-07   -797.01379            0   -797.01379    14099.717 
     807 1.762906e-07   -797.01379            0   -797.01379    14099.718 
     808 1.8947512e-07   -797.01379            0   -797.01379    14099.718 
     809 2.0298168e-07   -797.01379            0   -797.01379    14099.718 
     810 2.1678751e-07   -797.01379            0   -797.01379    14099.718 
     811 2.3086889e-07   -797.01379            0   -797.01379    14099.719 
     812 2.4520129e-07   -797.01379            0   -797.01379    14099.719 
     813 2.5975915e-07   -797.01379            0   -797.01379    14099.719 
     814 2.7451621e-07   -797.01379            0   -797.01379     14099.72 
     815 2.8944496e-07   -797.01379            0   -797.01379     14099.72 
     816 3.0451761e-07   -797.01379            0   -797.01379     14099.72 
     817 3.1970399e-07   -797.01379            0   -797.01379    14099.721 
     818 3.3497655e-07   -797.01379            0   -797.01379    14099.721 
     819 3.5029771e-07    -797.0138            0   -797.01379    14099.721 
     820 3.6565762e-07    -797.0138            0    -797.0138    14099.722 
     821 3.8099731e-07    -797.0138            0    -797.0138    14099.722 
     822 3.9688226e-07    -797.0138            0    -797.0138    14099.722 
     823 4.1780343e-07    -797.0138            0    -797.0138    14099.724 
     824 4.6161263e-07    -797.0138            0    -797.0138     14099.72 
     825 8.4212619e-08    -797.0138            0    -797.0138    14099.723 
     826 2.7998439e-08    -797.0138            0    -797.0138    14099.723 
     827 2.6639542e-08    -797.0138            0    -797.0138    14099.723 
     828 3.0928913e-08    -797.0138            0    -797.0138    14099.723 
     829 3.5563553e-08    -797.0138            0    -797.0138    14099.724 
     830 4.0492127e-08    -797.0138            0    -797.0138    14099.724 
     831 4.5706412e-08    -797.0138            0    -797.0138    14099.724 
     832 5.1196969e-08    -797.0138            0    -797.0138    14099.724 
     833 5.6954769e-08    -797.0138            0    -797.0138    14099.724 
     834 6.2969687e-08    -797.0138            0    -797.0138    14099.724 
     835 6.9231443e-08    -797.0138            0    -797.0138    14099.724 
     836 7.5728832e-08    -797.0138            0    -797.0138    14099.725 
     837 8.2450459e-08    -797.0138            0    -797.0138    14099.725 
     838 8.9383941e-08    -797.0138            0    -797.0138    14099.725 
     839 9.651688e-08    -797.0138            0    -797.0138    14099.725 
     840 1.0383555e-07    -797.0138            0    -797.0138    14099.725 
     841 1.1132684e-07    -797.0138            0    -797.0138    14099.725 
     842 1.1897509e-07    -797.0138            0    -797.0138    14099.726 
     843 1.2676761e-07    -797.0138            0    -797.0138    14099.726 
     844 1.3468381e-07    -797.0138            0    -797.0138    14099.726 
     845 1.4271575e-07    -797.0138            0    -797.0138    14099.726 
     846 1.5081443e-07    -797.0138            0    -797.0138    14099.727 
     847 1.5895974e-07    -797.0138            0    -797.0138    14099.727 
     848 1.6661913e-07    -797.0138            0    -797.0138    14099.727 
     849 1.7111469e-07    -797.0138            0    -797.0138    14099.727 
     850 1.4210389e-07    -797.0138            0    -797.0138    14099.729 
     851 3.2274569e-08    -797.0138            0    -797.0138    14099.728 
     852 1.5047802e-08    -797.0138            0    -797.0138    14099.728 
     853 1.7716884e-08    -797.0138            0    -797.0138    14099.728 
     854 2.0635963e-08    -797.0138            0    -797.0138    14099.728 
     855 2.3758581e-08    -797.0138            0    -797.0138    14099.728 
     856 2.7079164e-08    -797.0138            0    -797.0138    14099.728 
     857 3.0591526e-08    -797.0138            0    -797.0138    14099.728 
     858 3.428926e-08    -797.0138            0    -797.0138    14099.728 
     859 3.8165449e-08    -797.0138            0    -797.0138    14099.728 
     860 4.221282e-08    -797.0138            0    -797.0138    14099.728 
     861 4.6423641e-08    -797.0138            0    -797.0138    14099.729 
     862 5.0789808e-08    -797.0138            0    -797.0138    14099.729 
     863 5.5302765e-08    -797.0138            0    -797.0138    14099.729 
     864 5.9953602e-08    -797.0138            0    -797.0138    14099.729 
     865 6.4732932e-08    -797.0138            0    -797.0138    14099.729 
     866 6.9631073e-08    -797.0138            0    -797.0138    14099.729 
     867 7.4637774e-08    -797.0138            0    -797.0138    14099.729 
     868 7.974268e-08    -797.0138            0    -797.0138     14099.73 
     869 8.4934489e-08    -797.0138            0    -797.0138     14099.73 
     870 9.020259e-08    -797.0138            0    -797.0138     14099.73 
     871 9.5533452e-08    -797.0138            0    -797.0138     14099.73 
     872 1.009177e-07    -797.0138            0    -797.0138     14099.73 
     873 1.0632628e-07    -797.0138            0    -797.0138    14099.731 
     874 1.1171947e-07    -797.0138            0    -797.0138    14099.731 
     875 1.1660611e-07    -797.0138            0    -797.0138    14099.731 
     876 1.1762796e-07    -797.0138            0    -797.0138    14099.731 
     877 8.7764921e-08    -797.0138            0    -797.0138    14099.732 
     878 1.2757368e-08    -797.0138            0    -797.0138    14099.731 
     879 8.7821147e-09    -797.0138            0    -797.0138    14099.731 
     880 9.8909876e-09    -797.0138            0    -797.0138    14099.731 
     881 1.1671259e-08    -797.0138            0    -797.0138    14099.731 
     882 1.3587061e-08    -797.0138            0    -797.0138    14099.732 
     883 1.5634542e-08    -797.0138            0    -797.0138    14099.732 
     884 1.7809576e-08    -797.0138            0    -797.0138    14099.732 
     885 2.0107798e-08    -797.0138            0    -797.0138    14099.732 
     886 2.2524523e-08    -797.0138            0    -797.0138    14099.732 
     887 2.5054781e-08    -797.0138            0    -797.0138    14099.732 
     888 2.7693302e-08    -797.0138            0    -797.0138    14099.732 
     889 3.0434528e-08    -797.0138            0    -797.0138    14099.732 
     890 3.3272611e-08    -797.0138            0    -797.0138    14099.732 
     891 3.6201424e-08    -797.0138            0    -797.0138    14099.732 
     892 3.9214549e-08    -797.0138            0    -797.0138    14099.732 
     893 4.2305308e-08    -797.0138            0    -797.0138    14099.733 
     894 4.5466724e-08    -797.0138            0    -797.0138    14099.733 
     895 4.8691594e-08    -797.0138            0    -797.0138    14099.733 
     896 5.1972379e-08    -797.0138            0    -797.0138    14099.733 
     897 5.5301416e-08    -797.0138            0    -797.0138    14099.733 
     898 5.8670467e-08    -797.0138            0    -797.0138    14099.733 
     899 6.2071526e-08    -797.0138            0    -797.0138    14099.733 
     900 6.549359e-08    -797.0138            0    -797.0138    14099.734 
     901 6.892063e-08    -797.0138            0    -797.0138    14099.734 
     902 7.2255744e-08    -797.0138            0    -797.0138    14099.734 
     903 7.4817103e-08    -797.0138            0    -797.0138    14099.734 
     904 7.052688e-08    -797.0138            0    -797.0138    14099.734 
     905 3.3206397e-08    -797.0138            0    -797.0138    14099.734 
     906 2.3733699e-09    -797.0138            0    -797.0138    14099.734 
     907 3.4420274e-09    -797.0138            0    -797.0138    14099.734 
     908 4.2972338e-09    -797.0138            0    -797.0138    14099.734 
     909 5.2506345e-09    -797.0138            0    -797.0138    14099.734 
     910 6.3002431e-09    -797.0138            0    -797.0138    14099.735 
     911 7.4384012e-09    -797.0138            0    -797.0138    14099.735 
     912 8.6626455e-09    -797.0138            0    -797.0138    14099.735 
     913 9.9703045e-09    -797.0138            0    -797.0138    14099.735 
     914  1.13585e-08    -797.0138            0    -797.0138    14099.735 
     915 1.2824144e-08    -797.0138            0    -797.0138    14099.735 
     916 1.4363942e-08    -797.0138            0    -797.0138    14099.735 
     917 1.5974397e-08    -797.0138            0    -797.0138    14099.735 
     918 1.765181e-08    -797.0138            0    -797.0138    14099.735 
     919 1.9392286e-08    -797.0138            0    -797.0138    14099.735 
     920 2.1191736e-08    -797.0138            0    -797.0138    14099.735 
     921 2.3045881e-08    -797.0138            0    -797.0138    14099.735 
     922 2.4950258e-08    -797.0138            0    -797.0138    14099.735 
     923 2.690022e-08    -797.0138            0    -797.0138    14099.735 
     924 2.8890949e-08    -797.0138            0    -797.0138    14099.736 
     925 3.0917451e-08    -797.0138            0    -797.0138    14099.736 
     926 3.2974575e-08    -797.0138            0    -797.0138    14099.736 
     927 3.5056996e-08    -797.0138            0    -797.0138    14099.736 
     928 3.7159269e-08    -797.0138            0    -797.0138    14099.736 
     929 3.9275738e-08    -797.0138            0    -797.0138    14099.736 
     930 4.1400724e-08    -797.0138            0    -797.0138    14099.736 
     931 4.3527944e-08    -797.0138            0    -797.0138    14099.736 
     932 4.5650389e-08    -797.0138            0    -797.0138    14099.737 
     933 4.7745576e-08    -797.0138            0    -797.0138    14099.737 
     934 4.966041e-08    -797.0138            0    -797.0138    14099.737 
     935 4.972979e-08    -797.0138            0    -797.0138    14099.737 
     936 3.4282212e-08    -797.0138            0    -797.0138    14099.737 
     937 2.6664382e-09    -797.0138            0    -797.0138    14099.737 
     938 3.4235655e-09    -797.0138            0    -797.0138    14099.737 
     939 4.0739577e-09    -797.0138            0    -797.0138    14099.737 
     940 4.7893843e-09    -797.0138            0    -797.0138    14099.737 
     941 5.5570932e-09    -797.0138            0    -797.0138    14099.737 
     942 6.374893e-09    -797.0138            0    -797.0138    14099.737 
     943 7.2407917e-09    -797.0138            0    -797.0138    14099.737 
     944 8.1526467e-09    -797.0138            0    -797.0138    14099.737 
     945 9.1082014e-09    -797.0138            0    -797.0138    14099.737 
     946 1.0105055e-08    -797.0138            0    -797.0138    14099.737 
     947 1.1140689e-08    -797.0138            0    -797.0138    14099.738 
     948 1.2212449e-08    -797.0138            0    -797.0138    14099.738 
     949 1.3317573e-08    -797.0138            0    -797.0138    14099.738 
     950 1.4453159e-08    -797.0138            0    -797.0138    14099.738 
     951 1.561622e-08    -797.0138            0    -797.0138    14099.738 
     952 1.6803602e-08    -797.0138            0    -797.0138    14099.738 
     953 1.8012073e-08    -797.0138            0    -797.0138    14099.738 
     954 1.9237946e-08    -797.0138            0    -797.0138    14099.738 
     955 2.0476569e-08    -797.0138            0    -797.0138    14099.738 
     956 2.1716213e-08    -797.0138            0    -797.0138    14099.738 
     957 2.2905959e-08    -797.0138            0    -797.0138    14099.738 
     958 2.371648e-08    -797.0138            0    -797.0138    14099.738 
     959 2.2021452e-08    -797.0138            0    -797.0138    14099.738 
     960 1.0869111e-08    -797.0138            0    -797.0138    14099.739 
     961 1.5060326e-09    -797.0138            0    -797.0138    14099.739 
     962 2.0595758e-09    -797.0138            0    -797.0138    14099.739 
     963 2.4867369e-09    -797.0138            0    -797.0138    14099.739 
     964 2.9553602e-09    -797.0138            0    -797.0138    14099.739 
     965 3.4605177e-09    -797.0138            0    -797.0138    14099.739 
     966 4.0008919e-09    -797.0138            0    -797.0138    14099.739 
     967 4.5750857e-09    -797.0138            0    -797.0138    14099.739 
     968 5.1816048e-09    -797.0138            0    -797.0138    14099.739 
     969 5.8188565e-09    -797.0138            0    -797.0138    14099.739 
     970 6.4851525e-09    -797.0138            0    -797.0138    14099.739 
     971 7.1787121e-09    -797.0138            0    -797.0138    14099.739 
     972 7.8976643e-09    -797.0138            0    -797.0138    14099.739 
     973 8.6400514e-09    -797.0138            0    -797.0138    14099.739 
     974 9.4038327e-09    -797.0138            0    -797.0138    14099.739 
     975 1.0186888e-08    -797.0138            0    -797.0138    14099.739 
     976 1.0987019e-08    -797.0138            0    -797.0138    14099.739 
     977 1.1801959e-08    -797.0138            0    -797.0138    14099.739 
     978 1.2629366e-08    -797.0138            0    -797.0138    14099.739 
     979 1.346682e-08    -797.0138            0    -797.0138    14099.739 
     980 1.4311744e-08    -797.0138            0    -797.0138     14099.74 
     981 1.5160894e-08    -797.0138            0    -797.0138     14099.74 
     982 1.600686e-08    -797.0138            0    -797.0138     14099.74 
     983 1.6811099e-08    -797.0138            0    -797.0138     14099.74 
     984 1.7283495e-08    -797.0138            0    -797.0138     14099.74 
     985 1.5250834e-08    -797.0138            0    -797.0138     14099.74 
     986 5.1283868e-09    -797.0138            0    -797.0138     14099.74 
     987 5.7381113e-10    -797.0138            0    -797.0138     14099.74 
     988 9.2026961e-10    -797.0138            0    -797.0138     14099.74 
     989 1.1728216e-09    -797.0138            0    -797.0138     14099.74 
     990 1.4389295e-09    -797.0138            0    -797.0138     14099.74 
     991 1.7302122e-09    -797.0138            0    -797.0138     14099.74 
     992 2.0458756e-09    -797.0138            0    -797.0138     14099.74 
     993 2.3850649e-09    -797.0138            0    -797.0138     14099.74 
     994 2.7468541e-09    -797.0138            0    -797.0138     14099.74 
     995 3.130247e-09    -797.0138            0    -797.0138     14099.74 
     996 3.5341797e-09    -797.0138            0    -797.0138     14099.74 
     997 3.9575223e-09    -797.0138            0    -797.0138     14099.74 
     998 4.3990811e-09    -797.0138            0    -797.0138     14099.74 
     999 4.8576014e-09    -797.0138            0    -797.0138     14099.74 
    1000 5.3317691e-09    -797.0138            0    -797.0138     14099.74 
    1001 5.820215e-09    -797.0138            0    -797.0138     14099.74 
    1002 6.3215151e-09    -797.0138            0    -797.0138     14099.74 
    1003 6.8341974e-09    -797.0138            0    -797.0138    14099.741 
    1004 7.3567404e-09    -797.0138            0    -797.0138    14099.741 
    1005 7.8875821e-09    -797.0138            0    -797.0138    14099.741 
    1006 8.4251166e-09    -797.0138            0    -797.0138    14099.741 
    1007 8.967708e-09    -797.0138            0    -797.0138    14099.741 
    1008 9.5136776e-09    -797.0138            0    -797.0138    14099.741 
    1009 1.0061339e-08    -797.0138            0    -797.0138    14099.741 
    1010 1.0608937e-08    -797.0138            0    -797.0138    14099.741 
    1011 1.1154792e-08    -797.0138            0    -797.0138    14099.741 
    1012 1.1696867e-08    -797.0138            0    -797.0138    14099.741 
    1013 1.2232982e-08    -797.0138            0    -797.0138    14099.741 
[...]
    1984 6.8378675e-13    -797.0138            0    -797.0138    14099.746 
    1985 2.6796689e-15    -797.0138            0    -797.0138    14099.746 
    1986 6.5132973e-17    -797.0138            0    -797.0138    14099.746 
    1987 5.1467231e-17    -797.0138            0    -797.0138    14099.746 
    1988 5.9591523e-17    -797.0138            0    -797.0138    14099.746 
    1989 6.9345153e-17    -797.0138            0    -797.0138    14099.746 
    1990 7.9925455e-17    -797.0138            0    -797.0138    14099.746 
    1991   9.1207e-17    -797.0138            0    -797.0138    14099.746 
    1992 1.0318355e-16    -797.0138            0    -797.0138    14099.746 
    1993 1.158041e-16    -797.0138            0    -797.0138    14099.746 
    1994 1.2909351e-16    -797.0138            0    -797.0138    14099.746 
    1995 1.4299667e-16    -797.0138            0    -797.0138    14099.746 
    1996 1.5754894e-16    -797.0138            0    -797.0138    14099.746 
    1997 1.7276733e-16    -797.0138            0    -797.0138    14099.746 
    1998 1.8897027e-16    -797.0138            0    -797.0138    14099.746 
    1999 2.0733011e-16    -797.0138            0    -797.0138    14099.746 
    2000 2.3485784e-16    -797.0138            0    -797.0138    14099.746 
    2001 3.109717e-16    -797.0138            0    -797.0138    14099.746 
    2002 7.0369845e-16    -797.0138            0    -797.0138    14099.746 
    2003 3.397025e-15    -797.0138            0    -797.0138    14099.746 
    2004 2.4197338e-14    -797.0138            0    -797.0138    14099.746 
    2005 1.5106501e-13    -797.0138            0    -797.0138    14099.746 
    2006 1.6888584e-13    -797.0138            0    -797.0138    14099.746 
    2007 1.4867137e-14    -797.0138            0    -797.0138    14099.746 
    2008 1.9894287e-16    -797.0138            0    -797.0138    14099.746 
    2009 2.7007982e-17    -797.0138            0    -797.0138    14099.746 
    2010 3.2110245e-17    -797.0138            0    -797.0138    14099.746 
    2011 3.8131439e-17    -797.0138            0    -797.0138    14099.746 
    2012 4.465292e-17    -797.0138            0    -797.0138    14099.746 
    2013 5.1657448e-17    -797.0138            0    -797.0138    14099.746 
    2014 5.9137942e-17    -797.0138            0    -797.0138    14099.746 
    2015 6.7083415e-17    -797.0138            0    -797.0138    14099.746 
    2016 7.5481375e-17    -797.0138            0    -797.0138    14099.746 
    2017 8.4324497e-17    -797.0138            0    -797.0138    14099.746 
    2018 9.3601171e-17    -797.0138            0    -797.0138    14099.746 
    2019 1.0329631e-16    -797.0138            0    -797.0138    14099.746 
    2020 1.1340534e-16    -797.0138            0    -797.0138    14099.746 
    2021 1.2389955e-16    -797.0138            0    -797.0138    14099.746 
    2022 1.3480733e-16    -797.0138            0    -797.0138    14099.746 
    2023 1.4607842e-16    -797.0138            0    -797.0138    14099.746 
    2024 1.5782506e-16    -797.0138            0    -797.0138    14099.746 
    2025 1.7047207e-16    -797.0138            0    -797.0138    14099.746 
    2026 1.873956e-16    -797.0138            0    -797.0138    14099.746 
    2027 2.3641244e-16    -797.0138            0    -797.0138    14099.746 
    2028 5.6881111e-16    -797.0138            0    -797.0138    14099.746 
    2029 3.6512007e-15    -797.0138            0    -797.0138    14099.746 
    2030 2.578036e-14    -797.0138            0    -797.0138    14099.746 
    2031  1.90673e-14    -797.0138            0    -797.0138    14099.746 
    2032 4.4200061e-16    -797.0138            0    -797.0138    14099.746 
    2033 1.7519508e-17    -797.0138            0    -797.0138    14099.746 
    2034 2.0442037e-17    -797.0138            0    -797.0138    14099.746 
    2035 2.4288861e-17    -797.0138            0    -797.0138    14099.746 
    2036 2.8465822e-17    -797.0138            0    -797.0138    14099.746 
    2037 3.2962186e-17    -797.0138            0    -797.0138    14099.746 
    2038 3.7765404e-17    -797.0138            0    -797.0138    14099.746 
    2039 4.2872702e-17    -797.0138            0    -797.0138    14099.746 
    2040 4.8280723e-17    -797.0138            0    -797.0138    14099.746 
    2041 5.3973369e-17    -797.0138            0    -797.0138    14099.746 
    2042 5.9957539e-17    -797.0138            0    -797.0138    14099.746 
    2043 6.6217389e-17    -797.0138            0    -797.0138    14099.746 
    2044 7.2756419e-17    -797.0138            0    -797.0138    14099.746 
    2045 7.9555706e-17    -797.0138            0    -797.0138    14099.746 
    2046 8.6622056e-17    -797.0138            0    -797.0138    14099.746 
    2047 9.3985723e-17    -797.0138            0    -797.0138    14099.746 
    2048 1.0180358e-16    -797.0138            0    -797.0138    14099.746 
    2049 1.1112282e-16    -797.0138            0    -797.0138    14099.746 
    2050 1.2971362e-16    -797.0138            0    -797.0138    14099.746 
    2051 2.1930199e-16    -797.0138            0    -797.0138    14099.746 
    2052 9.0907365e-16    -797.0138            0    -797.0138    14099.746 
    2053 5.1153683e-15    -797.0138            0    -797.0138    14099.746 
    2054 3.9224124e-15    -797.0138            0    -797.0138    14099.746 
    2055 1.5138615e-16    -797.0138            0    -797.0138    14099.746 
    2056 1.1302432e-17    -797.0138            0    -797.0138    14099.746 
    2057 1.3515013e-17    -797.0138            0    -797.0138    14099.746 
    2058 1.6072517e-17    -797.0138            0    -797.0138    14099.746 
    2059 1.8852619e-17    -797.0138            0    -797.0138    14099.746 
    2060 2.1839938e-17    -797.0138            0    -797.0138    14099.746 
    2061 2.5034636e-17    -797.0138            0    -797.0138    14099.746 
    2062 2.8434526e-17    -797.0138            0    -797.0138    14099.746 
    2063 3.2041176e-17    -797.0138            0    -797.0138    14099.746 
    2064 3.5832656e-17    -797.0138            0    -797.0138    14099.746 
    2065 3.9834645e-17    -797.0138            0    -797.0138    14099.746 
    2066 4.4007669e-17    -797.0138            0    -797.0138    14099.746 
    2067 4.8394664e-17    -797.0138            0    -797.0138    14099.746 
    2068 5.2930384e-17    -797.0138            0    -797.0138    14099.746 
    2069 5.7687254e-17    -797.0138            0    -797.0138    14099.746 
    2070 6.257872e-17    -797.0138            0    -797.0138    14099.746 
    2071 6.7803132e-17    -797.0138            0    -797.0138    14099.746 
    2072 7.334794e-17    -797.0138            0    -797.0138    14099.746 
    2073 8.1952337e-17    -797.0138            0    -797.0138    14099.746 
    2074 1.0900454e-16    -797.0138            0    -797.0138    14099.746 
    2075 3.0173528e-16    -797.0138            0    -797.0138    14099.746 
    2076 1.5618465e-15    -797.0138            0    -797.0138    14099.746 
    2077 1.7379025e-15    -797.0138            0    -797.0138    14099.746 
    2078 1.3544796e-16    -797.0138            0    -797.0138    14099.746 
    2079 1.0068928e-17    -797.0138            0    -797.0138    14099.746 
    2080 6.9646246e-18    -797.0138            0    -797.0138    14099.746 
    2081 8.4734302e-18    -797.0138            0    -797.0138    14099.746 
    2082 1.0125387e-17    -797.0138            0    -797.0138    14099.746 
    2083 1.1918957e-17    -797.0138            0    -797.0138    14099.746 
    2084 1.3852266e-17    -797.0138            0    -797.0138    14099.746 
    2085 1.5924915e-17    -797.0138            0    -797.0138    14099.746 
    2086 1.8132484e-17    -797.0138            0    -797.0138    14099.746 
    2087 2.0477677e-17    -797.0138            0    -797.0138    14099.746 
    2088 2.2955667e-17    -797.0138            0    -797.0138    14099.746 
    2089 2.5562774e-17    -797.0138            0    -797.0138    14099.746 
    2090 2.8302133e-17    -797.0138            0    -797.0138    14099.746 
    2091 3.1168793e-17    -797.0138            0    -797.0138    14099.746 
    2092 3.4157301e-17    -797.0138            0    -797.0138    14099.746 
    2093 3.727534e-17    -797.0138            0    -797.0138    14099.746 
    2094 4.0510013e-17    -797.0138            0    -797.0138    14099.746 
    2095 4.390732e-17    -797.0138            0    -797.0138    14099.746 
    2096 4.7447317e-17    -797.0138            0    -797.0138    14099.746 
    2097 5.1904204e-17    -797.0138            0    -797.0138    14099.746 
    2098 6.0245764e-17    -797.0138            0    -797.0138    14099.746 
    2099 1.0533397e-16    -797.0138            0    -797.0138    14099.746 
    2100 4.7123851e-16    -797.0138            0    -797.0138    14099.746 
    2101 4.2666064e-15    -797.0138            0    -797.0138    14099.746 
    2102 4.8489612e-14    -797.0138            0    -797.0138    14099.746 
    2103 6.2451345e-13    -797.0138            0    -797.0138    14099.746 
    2104 7.3047497e-12    -797.0138            0    -797.0138    14099.746 
    2105 9.897301e-12    -797.0138            0    -797.0138    14099.745 
    2106 3.2281774e-13    -797.0138            0    -797.0138    14099.746 
    2107 1.1710071e-13    -797.0138            0    -797.0138    14099.746 
    2108 1.6213127e-14    -797.0138            0    -797.0138    14099.746 
    2109 7.4033766e-16    -797.0138            0    -797.0138    14099.746 
    2110 8.1712849e-18    -797.0138            0    -797.0138    14099.746 
    2111 4.6392698e-18    -797.0138            0    -797.0138    14099.746 
    2112 5.5453939e-18    -797.0138            0    -797.0138    14099.746 
    2113 6.5505685e-18    -797.0138            0    -797.0138    14099.746 
    2114 7.6377789e-18    -797.0138            0    -797.0138    14099.746 
    2115 8.803987e-18    -797.0138            0    -797.0138    14099.746 
    2116 1.0051716e-17    -797.0138            0    -797.0138    14099.746 
    2117 1.1376608e-17    -797.0138            0    -797.0138    14099.746 
    2118 1.2782039e-17    -797.0138            0    -797.0138    14099.746 
    2119 1.4262679e-17    -797.0138            0    -797.0138    14099.746 
    2120 1.5818719e-17    -797.0138            0    -797.0138    14099.746 
    2121 1.7454442e-17    -797.0138            0    -797.0138    14099.746 
    2122 1.9159656e-17    -797.0138            0    -797.0138    14099.746 
    2123 2.0948227e-17    -797.0138            0    -797.0138    14099.746 
    2124 2.2799331e-17    -797.0138            0    -797.0138    14099.746 
    2125 2.4750642e-17    -797.0138            0    -797.0138    14099.746 
    2126 2.677104e-17    -797.0138            0    -797.0138    14099.746 
    2127 2.9133146e-17    -797.0138            0    -797.0138    14099.746 
    2128 3.2862215e-17    -797.0138            0    -797.0138    14099.746 
    2129 4.8082112e-17    -797.0138            0    -797.0138    14099.746 
    2130 1.6487897e-16    -797.0138            0    -797.0138    14099.746 
    2131 1.3290262e-15    -797.0138            0    -797.0138    14099.746 
    2132 1.4687266e-14    -797.0138            0    -797.0138    14099.746 
    2133 1.8599701e-13    -797.0138            0    -797.0138    14099.746 
    2134 2.2291756e-12    -797.0138            0    -797.0138    14099.745 
    2135 4.223057e-12    -797.0138            0    -797.0138    14099.746 
    2136 8.5176568e-14    -797.0138            0    -797.0138    14099.746 
    2137 8.1878545e-14    -797.0138            0    -797.0138    14099.746 
    2138 4.4654977e-14    -797.0138            0    -797.0138    14099.746 
    2139 1.1705946e-14    -797.0138            0    -797.0138    14099.746 
    2140  1.34178e-15    -797.0138            0    -797.0138    14099.746 
    2141 5.2158447e-17    -797.0138            0    -797.0138    14099.746 
    2142 2.4189274e-18    -797.0138            0    -797.0138    14099.746 
    2143 2.7240388e-18    -797.0138            0    -797.0138    14099.746 
    2144 3.2612999e-18    -797.0138            0    -797.0138    14099.746 
    2145 3.8442284e-18    -797.0138            0    -797.0138    14099.746 
    2146 4.473693e-18    -797.0138            0    -797.0138    14099.746 
    2147 5.1496059e-18    -797.0138            0    -797.0138    14099.746 
    2148 5.8727323e-18    -797.0138            0    -797.0138    14099.746 
    2149 6.6423038e-18    -797.0138            0    -797.0138    14099.746 
    2150 7.4558957e-18    -797.0138            0    -797.0138    14099.746 
    2151 8.3170352e-18    -797.0138            0    -797.0138    14099.746 
    2152 9.2187274e-18    -797.0138            0    -797.0138    14099.746 
    2153 1.0172959e-17    -797.0138            0    -797.0138    14099.746 
    2154 1.115937e-17    -797.0138            0    -797.0138    14099.746 
    2155 1.221288e-17    -797.0138            0    -797.0138    14099.746 
    2156 1.3273865e-17    -797.0138            0    -797.0138    14099.746 
    2157 1.4458113e-17    -797.0138            0    -797.0138    14099.746 
    2158 1.5587744e-17    -797.0138            0    -797.0138    14099.746 
    2159 1.7295969e-17    -797.0138            0    -797.0138    14099.746 
    2160 2.0180931e-17    -797.0138            0    -797.0138    14099.746 
    2161 3.893914e-17    -797.0138            0    -797.0138    14099.746 
    2162 1.8842525e-16    -797.0138            0    -797.0138    14099.746 
    2163 1.785266e-15    -797.0138            0    -797.0138    14099.746 
    2164 2.0816051e-14    -797.0138            0    -797.0138    14099.746 
    2165 2.8001498e-13    -797.0138            0    -797.0138    14099.746 
    2166 4.1445887e-12    -797.0138            0    -797.0138    14099.746 
    2167 4.3400869e-11    -797.0138            0    -797.0138    14099.746 
    2168 7.4791515e-12    -797.0138            0    -797.0138    14099.746 
    2169 4.0162968e-12    -797.0138            0    -797.0138    14099.746 
    2170 2.1550953e-13    -797.0138            0    -797.0138    14099.746 
    2171 2.3801195e-16    -797.0138            0    -797.0138    14099.746 
    2172 2.4155248e-18    -797.0138            0    -797.0138    14099.746 
    2173 1.9554283e-18    -797.0138            0    -797.0138    14099.746 
    2174 2.2589607e-18    -797.0138            0    -797.0138    14099.746 
    2175 2.6174947e-18    -797.0138            0    -797.0138    14099.746 
    2176 3.0059882e-18    -797.0138            0    -797.0138    14099.746 
    2177 3.4217778e-18    -797.0138            0    -797.0138    14099.746 
    2178 3.862632e-18    -797.0138            0    -797.0138    14099.746 
    2179 4.3308183e-18    -797.0138            0    -797.0138    14099.746 
    2180 4.8274321e-18    -797.0138            0    -797.0138    14099.746 
    2181 5.3457695e-18    -797.0138            0    -797.0138    14099.746 
    2182 5.8971869e-18    -797.0138            0    -797.0138    14099.746 
    2183 6.4666546e-18    -797.0138            0    -797.0138    14099.746 
    2184 7.0888047e-18    -797.0138            0    -797.0138    14099.746 
    2185 7.7445063e-18    -797.0138            0    -797.0138    14099.746 
    2186 8.6632158e-18    -797.0138            0    -797.0138    14099.746 
    2187 1.0621871e-17    -797.0138            0    -797.0138    14099.746 
    2188 2.0170129e-17    -797.0138            0    -797.0138    14099.746 
    2189 8.6162317e-17    -797.0138            0    -797.0138    14099.746 
    2190 6.4917074e-16    -797.0138            0    -797.0138    14099.746 
    2191 6.1386764e-15    -797.0138            0    -797.0138    14099.746 
    2192 6.7038592e-14    -797.0138            0    -797.0138    14099.746 
    2193 8.1994332e-13    -797.0138            0    -797.0138    14099.746 
    2194 9.2320589e-12    -797.0138            0    -797.0138    14099.746 
    2195 1.5030436e-11    -797.0138            0    -797.0138    14099.745 
    2196 5.6109111e-13    -797.0138            0    -797.0138    14099.746 
    2197 2.7270477e-13    -797.0138            0    -797.0138    14099.746 
    2198 5.4771622e-14    -797.0138            0    -797.0138    14099.746 
    2199 4.0621906e-15    -797.0138            0    -797.0138    14099.746 
    2200 6.9161067e-17    -797.0138            0    -797.0138    14099.746 
    2201 8.345622e-19    -797.0138            0    -797.0138    14099.746 
    2202 9.8263961e-19    -797.0138            0    -797.0138    14099.746 
    2203 1.1679831e-18    -797.0138            0    -797.0138    14099.746 
    2204 1.3683509e-18    -797.0138            0    -797.0138    14099.746 
    2205 1.5859019e-18    -797.0138            0    -797.0138    14099.746 
    2206 1.8177048e-18    -797.0138            0    -797.0138    14099.746 
    2207 2.0671693e-18    -797.0138            0    -797.0138    14099.746 
    2208 2.3302311e-18    -797.0138            0    -797.0138    14099.746 
    2209 2.6111424e-18    -797.0138            0    -797.0138    14099.746 
    2210 2.9060271e-18    -797.0138            0    -797.0138    14099.746 
    2211 3.2188445e-18    -797.0138            0    -797.0138    14099.746 
    2212 3.5436076e-18    -797.0138            0    -797.0138    14099.746 
    2213 3.8906608e-18    -797.0138            0    -797.0138    14099.746 
    2214 4.2453299e-18    -797.0138            0    -797.0138    14099.746 
    2215 4.6342807e-18    -797.0138            0    -797.0138    14099.746 
    2216 5.0230108e-18    -797.0138            0    -797.0138    14099.746 
    2217 5.5416313e-18    -797.0138            0    -797.0138    14099.746 
    2218 6.3619928e-18    -797.0138            0    -797.0138    14099.746 
    2219 1.0384913e-17    -797.0138            0    -797.0138    14099.746 
    2220 3.8652087e-17    -797.0138            0    -797.0138    14099.746 
    2221 3.1023356e-16    -797.0138            0    -797.0138    14099.746 
    2222 3.2502009e-15    -797.0138            0    -797.0138    14099.746 
    2223 3.9830029e-14    -797.0138            0    -797.0138    14099.746 
    2224 5.5345495e-13    -797.0138            0    -797.0138    14099.746 
    2225 8.1375055e-12    -797.0138            0    -797.0138    14099.745 
    2226 4.8580695e-11    -797.0138            0    -797.0138    14099.746 
    2227 3.2655953e-14    -797.0138            0    -797.0138    14099.746 
Loop time of 427.117 on 24 procs for 727 steps with 127 atoms

98.5% CPU use with 24 MPI tasks x no OpenMP threads

Minimization stats:
  Stopping criterion = energy tolerance
  Energy initial, next-to-last, final = 
        -797.013795493     -797.013795495     -797.013795495
  Force two-norm initial, final = 2.93541e-07 1.57437e-06
  Force max component initial, final = 7.03632e-08 5.40314e-07
  Final line search alpha, max atom move = 0 0
  Iterations, force evaluations = 727 727

MPI task timing breakdown:
Section |  min time  |  avg time  |  max time  |%varavg| %total
---------------------------------------------------------------
Pair    | 174.63     | 311.48     | 421.49     | 419.8 | 72.93
Neigh   | 0          | 0          | 0          |   0.0 |  0.00
Comm    | 0.10922    | 110.12     | 246.97     | 706.1 | 25.78
Output  | 0.12208    | 0.12256    | 0.12334    |   0.1 |  0.03
Modify  | 4.9121     | 4.9129     | 4.9135     |   0.0 |  1.15
Other   |            | 0.485      |            |       |  0.11

Nlocal:    5.29167 ave 7 max 3 min
Histogram: 4 0 0 0 0 9 0 7 0 4
Nghost:    759.125 ave 799 max 714 min
Histogram: 7 1 0 0 0 2 6 0 3 5
Neighs:    0 ave 0 max 0 min
Histogram: 24 0 0 0 0 0 0 0 0 0
FullNghs:  1067.5 ave 1409 max 616 min
Histogram: 4 0 0 0 5 4 0 7 0 4

Total # of neighbors = 25620
Ave neighs/atom = 201.732
Neighbor list builds = 0
Dangerous builds = 0
Total wall time: 0:22:05
