LAMMPS (12 Dec 2018)
Processor partition = 6
Reading data file ...
  orthogonal box = (0 0 0) to (10.0025 12.3537 10.615)
  2 by 4 by 3 MPI processor grid
  reading atoms ...
  127 atoms
Reading potential file lammps-force.nnp with DATE: 20201105
Reading potential file lammps_rot.nnp with DATE: 20211226
Neighbor list info ...
  update every 1 steps, delay 0 steps, check yes
  max neighbors/atom: 2000, page size: 100000
  master list distance cutoff = 8
  ghost atom cutoff = 8
  binsize = 4, bins = 3 4 3
  2 neighbor lists, perpetual/occasional/extra = 2 0 0
  (1) pair nnp3v, perpetual
      attributes: full, newton on
      pair build: full/bin/atomonly
      stencil: full/bin/3d
      bin: standard
  (2) pair nnp3v_vf, perpetual, copy from (1)
      attributes: full, newton on
      pair build: copy
      stencil: none
      bin: none
Setting up quickmin style minimization ...
  Unit style    : metal
  Current step  : 0
Per MPI rank memory allocation (min/avg/max) = 3.111 | 3.226 | 3.362 Mbytes
Step Temp E_pair E_mol TotEng Press 
       0            0   -796.79482            0   -796.79482    13324.103 
      24   0.66844098   -796.99042            0   -796.97954    13893.519 
Loop time of 14.4789 on 24 procs for 24 steps with 127 atoms

98.3% CPU use with 24 MPI tasks x no OpenMP threads

Minimization stats:
  Stopping criterion = energy tolerance
  Energy initial, next-to-last, final = 
        -796.794816724     -796.990398619     -796.990424995
  Force two-norm initial, final = 1.98977 0.177561
  Force max component initial, final = 0.330078 0.036579
  Final line search alpha, max atom move = 0 0
  Iterations, force evaluations = 24 24

MPI task timing breakdown:
Section |  min time  |  avg time  |  max time  |%varavg| %total
---------------------------------------------------------------
Pair    | 6.0439     | 10.709     | 14.474     |  77.9 | 73.96
Neigh   | 0          | 0          | 0          |   0.0 |  0.00
Comm    | 0.0041838  | 3.7692     | 8.4338     | 131.3 | 26.03
Output  | 0          | 0          | 0          |   0.0 |  0.00
Modify  | 0          | 0          | 0          |   0.0 |  0.00
Other   |            | 0.001123   |            |       |  0.01

Nlocal:    5.29167 ave 7 max 3 min
Histogram: 4 0 0 0 0 9 0 7 0 4
Nghost:    759.125 ave 797 max 714 min
Histogram: 7 1 0 0 0 2 6 0 0 8
Neighs:    0 ave 0 max 0 min
Histogram: 24 0 0 0 0 0 0 0 0 0
FullNghs:  1068 ave 1413 max 614 min
Histogram: 4 0 0 0 5 4 0 7 0 4

Total # of neighbors = 25632
Ave neighs/atom = 201.827
Neighbor list builds = 0
Dangerous builds = 0
Setting up quickmin style minimization ...
  Unit style    : metal
  Current step  : 0
Per MPI rank memory allocation (min/avg/max) = 5.112 | 5.237 | 5.362 Mbytes
Step Temp E_pair E_mol TotEng Press 
       0            0   -796.29197            0   -796.29197    15438.472 
       1   0.58967613   -796.29197            0   -796.28237    15446.293 
       2    3.6758525   -796.31691            0   -796.25705    15429.893 
       3    10.407583   -796.36646            0   -796.19695    15410.198 
       4    22.775581    -796.4384            0   -796.06746    15432.053 
       5    41.047787   -796.52461            0   -795.85608    15533.454 
       6    59.682214   -796.61299            0   -795.64096    15648.473 
       7    77.368598    -796.6958            0   -795.43571    15690.893 
       8    90.032869   -796.76642            0   -795.30008    15597.945 
       9    97.727244    -796.8236            0   -795.23194    15524.118 
      10    104.45218   -796.87012            0   -795.16893    15560.416 
      11    72.926993   -796.89838            0   -795.71063    15137.164 
      12   0.43063322   -796.90046            0   -796.89345    14171.989 
      13    0.6522333   -796.90303            0   -796.89241     14172.05 
      14   0.98897055   -796.90617            0   -796.89007    14175.639 
      15    1.4686539   -796.90998            0   -796.88606    14184.032 
      16    1.9238638   -796.91425            0   -796.88292    14194.271 
      17    2.3345302   -796.91884            0   -796.88082    14204.569 
      18    2.7686427    -796.9237            0   -796.87861    14215.427 
      19    3.2261897   -796.92882            0   -796.87627    14227.159 
      20    3.7000849   -796.93413            0   -796.87387    14239.984 
      21    4.1839174    -796.9396            0   -796.87145    14254.022 
      22     4.671545   -796.94516            0   -796.86908    14269.315 
      23    5.1568954   -796.95078            0   -796.86679    14285.894 
      24    5.6339709    -796.9564            0   -796.86464     14303.72 
      25    6.0972258   -796.96199            0   -796.86269    14322.718 
      26    6.5417954    -796.9675            0   -796.86096    14342.785 
      27    6.9637641   -796.97287            0   -796.85946     14363.77 
      28    7.3604425   -796.97809            0   -796.85822    14385.571 
      29    7.7306026   -796.98314            0   -796.85723     14408.02 
      30     8.074116     -796.988            0    -796.8565    14430.959 
      31    8.3923427   -796.99263            0   -796.85595    14454.221 
      32    8.6877741   -796.99704            0   -796.85555     14477.61 
      33    8.9639915   -797.00126            0   -796.85527    14500.843 
      34    9.2233936   -797.00521            0   -796.85499     14523.78 
      35    9.4725831   -797.00885            0   -796.85458    14546.105 
      36    9.6893903   -797.01214            0   -796.85433     14567.72 
      37    9.7948982   -797.01508            0   -796.85555     14585.14 
      38    6.8030799    -797.0165            0    -796.9057    14563.122 
      39 0.0025136657    -797.0165            0   -797.01646    14472.929 
      40   0.01034235   -797.01658            0   -797.01641    14472.836 
      41  0.023725951   -797.01673            0   -797.01634    14472.657 
      42  0.041796675   -797.01693            0   -797.01625    14472.472 
      43   0.06321168   -797.01717            0   -797.01614    14472.415 
      44  0.086087822   -797.01742            0   -797.01602    14472.674 
      45   0.10755121   -797.01769            0   -797.01593    14473.447 
      46   0.12638531   -797.01796            0    -797.0159    14474.808 
      47    0.1496473   -797.01825            0   -797.01581    14476.693 
      48   0.17984658   -797.01856            0   -797.01563    14478.956 
      49   0.21408486   -797.01891            0   -797.01542    14481.463 
      50   0.25118238   -797.01927            0   -797.01518     14484.15 
      51   0.29083678   -797.01967            0   -797.01493    14487.001 
      52   0.33288883   -797.02008            0   -797.01466    14490.005 
      53   0.37719825   -797.02051            0   -797.01437    14493.152 
      54   0.42362242   -797.02096            0   -797.01406    14496.429 
      55    0.4720169   -797.02143            0   -797.01374    14499.822 
      56   0.52223264   -797.02192            0   -797.01341    14503.319 
      57   0.57411912   -797.02241            0   -797.01306    14506.899 
      58   0.62752235   -797.02292            0    -797.0127    14510.549 
      59   0.68227815   -797.02344            0   -797.01233    14514.244 
      60   0.73824021   -797.02396            0   -797.01194    14517.968 
      61   0.79525919    -797.0245            0   -797.01154    14521.703 
      62   0.85318013   -797.02503            0   -797.01114    14525.425 
      63   0.91185774   -797.02557            0   -797.01072    14529.113 
      64   0.97114589   -797.02611            0   -797.01029    14532.748 
      65     1.030908   -797.02664            0   -797.00985    14536.305 
      66    1.0909997   -797.02717            0    -797.0094    14539.761 
      67    1.1513124   -797.02769            0   -797.00894    14543.093 
      68    1.2116851    -797.0282            0   -797.00847    14546.294 
      69    1.2720843   -797.02871            0   -797.00799    14549.315 
      70    1.3322111   -797.02921            0   -797.00751    14552.213 
      71    1.3924729   -797.02971            0   -797.00703    14554.771 
      72    1.4514039    -797.0302            0   -797.00656    14557.527 
      73    1.5136276   -797.03066            0   -797.00601    14558.789 
      74    1.5710205   -797.03112            0   -797.00553    14564.124 
      75    1.7442074   -797.03143            0   -797.00303    14555.634 
      76    1.9441754   -797.03154            0   -796.99988    14587.596 
      77  0.040976524   -797.03168            0   -797.03101     14558.05 
      78   0.05258423    -797.0318            0   -797.03095    14553.343 
      79  0.054643419    -797.0319            0   -797.03101    14548.749 
      80  0.045793986   -797.03196            0   -797.03121    14545.262 
      81  0.039353122   -797.03201            0   -797.03137    14543.463 
      82  0.042800167   -797.03207            0   -797.03138    14542.923 
      83  0.050936492   -797.03214            0   -797.03131    14542.936 
      84  0.060582123   -797.03222            0   -797.03123    14543.109 
      85  0.071099255    -797.0323            0   -797.03114     14543.31 
      86  0.082394764   -797.03239            0   -797.03104    14543.509 
      87  0.094437102   -797.03248            0   -797.03094    14543.703 
      88   0.10720158   -797.03258            0   -797.03083    14543.892 
      89   0.12066326   -797.03268            0   -797.03072    14544.072 
      90   0.13479606   -797.03279            0   -797.03059    14544.242 
      91   0.14957287    -797.0329            0   -797.03047    14544.398 
      92   0.16496569   -797.03302            0   -797.03033    14544.536 
      93    0.1809457   -797.03314            0    -797.0302    14544.652 
      94   0.19748343   -797.03327            0   -797.03005    14544.742 
      95   0.21454938    -797.0334            0    -797.0299    14544.802 
      96    0.2321131   -797.03353            0   -797.02975    14544.827 
      97   0.25014351   -797.03367            0    -797.0296    14544.814 
      98   0.26860996   -797.03381            0   -797.02944    14544.759 
      99   0.28748192   -797.03395            0   -797.02927    14544.657 
     100   0.30672707    -797.0341            0   -797.02911    14544.503 
     101   0.32631443   -797.03425            0   -797.02894    14544.293 
     102   0.34621355   -797.03441            0   -797.02877    14544.023 
     103   0.36639391   -797.03456            0    -797.0286    14543.689 
     104   0.38682573   -797.03472            0   -797.02842    14543.288 
     105   0.40747902   -797.03488            0   -797.02825    14542.816 
     106   0.42832547   -797.03505            0   -797.02807    14542.269 
     107   0.44933132   -797.03521            0    -797.0279    14541.645 
     108   0.47046051   -797.03538            0   -797.02772    14540.936 
     109   0.49156181   -797.03555            0   -797.02755    14540.148 
     110   0.51151768   -797.03572            0   -797.02739    14539.232 
     111    0.5180734   -797.03589            0   -797.02745    14538.151 
     112   0.39737309   -797.03605            0   -797.02958    14535.207 
     113  0.043134633   -797.03609            0   -797.03539     14530.34 
     114  0.024514007   -797.03613            0   -797.03573    14529.764 
     115  0.029022596   -797.03616            0   -797.03569     14529.51 
     116  0.033677664   -797.03621            0   -797.03566    14529.231 
     117  0.038652771   -797.03625            0   -797.03562    14528.926 
     118  0.043939897    -797.0363            0   -797.03558    14528.594 
     119  0.049531072   -797.03635            0   -797.03554    14528.235 
     120   0.05541789    -797.0364            0    -797.0355    14527.848 
     121  0.061591584   -797.03646            0   -797.03546    14527.432 
     122  0.068042979   -797.03652            0   -797.03541    14526.987 
     123  0.074762539   -797.03658            0   -797.03536     14526.51 
     124  0.081740392   -797.03665            0   -797.03531    14526.001 
     125  0.088966362   -797.03671            0   -797.03526    14525.459 
     126  0.096429986   -797.03678            0   -797.03521    14524.884 
     127   0.10412054   -797.03686            0   -797.03516    14524.273 
     128   0.11202708   -797.03693            0   -797.03511    14523.625 
     129   0.12013857   -797.03701            0   -797.03506    14522.941 
     130   0.12844361    -797.0371            0     -797.035    14522.219 
     131   0.13693065   -797.03718            0   -797.03495    14521.458 
     132   0.14558814   -797.03727            0   -797.03489    14520.656 
     133   0.15440431   -797.03736            0   -797.03484    14519.813 
     134   0.16336749   -797.03745            0   -797.03479    14518.929 
     135   0.17246595   -797.03754            0   -797.03473    14518.001 
     136    0.1816878   -797.03764            0   -797.03468     14517.03 
     137   0.19102036   -797.03774            0   -797.03463    14516.013 
     138   0.20045317   -797.03784            0   -797.03458    14514.949 
     139    0.2099707   -797.03795            0   -797.03453    14513.841 
     140   0.21956645   -797.03805            0   -797.03448     14512.68 
     141   0.22917131   -797.03816            0   -797.03443    14511.488 
     142    0.2384753   -797.03828            0   -797.03439    14510.184 
     143   0.24283824   -797.03839            0   -797.03444    14508.995 
     144     0.195495    -797.0385            0   -797.03532    14506.541 
     145  0.023681849   -797.03853            0   -797.03814    14504.416 
     146 0.0083098727   -797.03855            0   -797.03842    14503.831 
     147  0.010252727   -797.03857            0   -797.03841    14503.547 
     148  0.012108924    -797.0386            0    -797.0384    14503.259 
     149  0.014109087   -797.03863            0    -797.0384    14502.947 
     150  0.016252794   -797.03866            0   -797.03839    14502.609 
     151  0.018536894   -797.03869            0   -797.03839    14502.244 
     152   0.02095835   -797.03872            0   -797.03838    14501.854 
     153  0.023513966   -797.03876            0   -797.03837    14501.438 
     154  0.026200415    -797.0388            0   -797.03837    14500.995 
     155  0.029014192   -797.03884            0   -797.03836    14500.526 
     156   0.03195151   -797.03888            0   -797.03836     14500.03 
     157  0.035008498   -797.03892            0   -797.03835    14499.507 
     158  0.038181135   -797.03897            0   -797.03835    14498.957 
     159   0.04146526   -797.03902            0   -797.03834    14498.379 
     160  0.044856567   -797.03907            0   -797.03834     14497.77 
     161  0.048350317   -797.03913            0   -797.03834    14497.134 
     162  0.051942193   -797.03918            0   -797.03834    14496.469 
     163  0.055627492   -797.03924            0   -797.03834    14495.777 
     164  0.059401545    -797.0393            0   -797.03834    14495.055 
     165  0.063259374   -797.03937            0   -797.03834    14494.305 
     166  0.067196207   -797.03944            0   -797.03834    14493.527 
     167  0.071206703    -797.0395            0   -797.03834    14492.719 
     168  0.075286266   -797.03957            0   -797.03835    14491.881 
     169   0.07942877   -797.03964            0   -797.03835    14491.013 
     170  0.083630336   -797.03972            0   -797.03835    14490.113 
     171  0.087882693   -797.03979            0   -797.03836    14489.188 
     172  0.092187501   -797.03987            0   -797.03837    14488.223 
     173  0.096523396   -797.03995            0   -797.03838    14487.254 
     174   0.10093078   -797.04003            0   -797.03839    14486.183 
     175   0.10533237   -797.04011            0    -797.0384    14485.299 
     176   0.11050319   -797.04021            0   -797.03841     14483.71 
     177   0.12083974   -797.04027            0    -797.0383    14484.455 
     178   0.18733026    -797.0404            0   -797.03735    14478.895 
     179   0.13120687   -797.04037            0   -797.03823    14483.609 
     180 0.0095774895   -797.04041            0   -797.04025    14480.511 
     181 0.0047783424   -797.04043            0   -797.04035    14479.817 
     182 0.0049239554   -797.04045            0   -797.04037    14479.516 
     183 0.0057703258   -797.04047            0   -797.04037    14479.272 
     184 0.0067090389   -797.04049            0   -797.04038    14479.013 
     185 0.0077149295   -797.04051            0   -797.04039    14478.732 
     186 0.0087860889   -797.04054            0   -797.04039    14478.429 
     187  0.009921121   -797.04056            0    -797.0404    14478.105 
     188  0.011118593   -797.04059            0   -797.04041     14477.76 
     189   0.01237699   -797.04062            0   -797.04042    14477.394 
     190   0.01369472   -797.04065            0   -797.04043    14477.008 
     191  0.015070111   -797.04069            0   -797.04044      14476.6 
     192  0.016501435   -797.04072            0   -797.04045    14476.171 
     193   0.01798685   -797.04076            0   -797.04046    14475.722 
     194  0.019524476   -797.04079            0   -797.04048    14475.252 
     195  0.021112347   -797.04083            0   -797.04049    14474.761 
     196  0.022748452   -797.04087            0    -797.0405    14474.249 
     197  0.024430697   -797.04092            0   -797.04052    14473.716 
     198  0.026156941   -797.04096            0   -797.04053    14473.163 
     199  0.027924974   -797.04101            0   -797.04055    14472.589 
     200  0.029732545   -797.04105            0   -797.04057    14471.994 
     201  0.031577337    -797.0411            0   -797.04059    14471.379 
     202  0.033457003   -797.04115            0   -797.04061    14470.744 
     203  0.035369123   -797.04121            0   -797.04063    14470.087 
     204  0.037311269   -797.04126            0   -797.04065    14469.411 
     205  0.039280932   -797.04132            0   -797.04068    14468.714 
     206  0.041275601   -797.04138            0   -797.04071    14467.997 
     207  0.043292789   -797.04144            0   -797.04073    14467.259 
     208  0.045329594    -797.0415            0   -797.04076    14466.503 
     209    0.0473853   -797.04156            0   -797.04079    14465.721 
     210  0.049456766   -797.04163            0   -797.04082    14464.939 
     211  0.051608843    -797.0417            0   -797.04086    14464.068 
     212  0.054332846   -797.04176            0   -797.04087    14463.437 
     213   0.06431403   -797.04185            0    -797.0408    14462.012 
     214   0.10310924   -797.04182            0   -797.04014    14463.818 
     215 0.0094965581   -797.04186            0   -797.04171    14461.806 
     216 0.0063510213   -797.04189            0   -797.04179    14461.151 
     217 0.0027195391   -797.04191            0   -797.04187    14460.776 
     218 0.0023201925   -797.04193            0   -797.04189    14460.576 
     219 0.0026941222   -797.04194            0    -797.0419    14460.397 
     220 0.0031353778   -797.04196            0   -797.04191    14460.203 
     221 0.0036085917   -797.04198            0   -797.04192    14459.992 
     222 0.0041127084     -797.042            0   -797.04193    14459.766 
     223 0.0046471154   -797.04202            0   -797.04194    14459.524 
     224 0.0052111444   -797.04204            0   -797.04195    14459.266 
     225 0.0058040868   -797.04206            0   -797.04197    14458.994 
     226 0.0064251957   -797.04209            0   -797.04198    14458.706 
     227 0.0070736865   -797.04211            0     -797.042    14458.403 
     228 0.0077487377   -797.04214            0   -797.04201    14458.085 
     229 0.0084494969   -797.04217            0   -797.04203    14457.752 
     230 0.0091750669    -797.0422            0   -797.04205    14457.404 
     231  0.009924522   -797.04223            0   -797.04207    14457.041 
     232  0.010696903   -797.04226            0   -797.04209    14456.663 
     233  0.011491222   -797.04229            0   -797.04211     14456.27 
     234  0.012306456   -797.04233            0   -797.04213    14455.863 
     235  0.013141557   -797.04237            0   -797.04215    14455.441 
     236  0.013995445    -797.0424            0   -797.04218    14455.005 
     237  0.014867017   -797.04244            0    -797.0422    14454.554 
     238  0.015755144   -797.04248            0   -797.04223    14454.089 
     239  0.016658669   -797.04252            0   -797.04225    14453.609 
     240  0.017576415   -797.04257            0   -797.04228    14453.116 
     241  0.018507181   -797.04261            0   -797.04231    14452.608 
     242  0.019449756   -797.04266            0   -797.04234    14452.086 
     243  0.020402888    -797.0427            0   -797.04237    14451.551 
     244  0.021365334   -797.04275            0    -797.0424    14451.002 
     245  0.022335664    -797.0428            0   -797.04244    14450.439 
     246  0.023312491   -797.04285            0   -797.04247    14449.861 
     247  0.024288933    -797.0429            0   -797.04251    14449.279 
     248  0.025221431   -797.04296            0   -797.04255    14448.653 
     249  0.025552408   -797.04301            0    -797.0426    14448.125 
     250  0.019949559   -797.04306            0   -797.04274    14447.229 
     251  0.002333843   -797.04307            0   -797.04304    14447.102 
     252 0.0012918306   -797.04309            0   -797.04307    14446.902 
     253 0.0014905558    -797.0431            0   -797.04307    14446.762 
     254 0.0017196189   -797.04311            0   -797.04308     14446.61 
     255 0.0019639269   -797.04313            0    -797.0431    14446.448 
     256 0.0022231773   -797.04314            0   -797.04311    14446.274 
     257 0.0024970429   -797.04316            0   -797.04312    14446.089 
     258 0.0027851758   -797.04318            0   -797.04313    14445.893 
     259 0.0030872094    -797.0432            0   -797.04315    14445.686 
     260 0.0034027576   -797.04322            0   -797.04316    14445.468 
     261 0.0037314161   -797.04324            0   -797.04318    14445.239 
     262 0.0040727622   -797.04326            0   -797.04319        14445 
     263 0.0044263558   -797.04328            0   -797.04321    14444.749 
     264 0.0047917398   -797.04331            0   -797.04323    14444.488 
     265 0.0051684402   -797.04333            0   -797.04325    14444.217 
     266 0.0055559672   -797.04336            0   -797.04327    14443.935 
     267 0.0059538156   -797.04338            0   -797.04329    14443.643 
     268 0.0063614648   -797.04341            0   -797.04331     14443.34 
     269 0.0067783804   -797.04344            0   -797.04333    14443.027 
     270 0.0072040144   -797.04347            0   -797.04335    14442.703 
     271 0.0076378066    -797.0435            0   -797.04338     14442.37 
     272 0.0080791849   -797.04353            0    -797.0434    14442.026 
     273 0.0085275393   -797.04357            0   -797.04343    14441.672 
     274 0.0089822727    -797.0436            0   -797.04346    14441.307 
     275 0.0094427904   -797.04364            0   -797.04348    14440.933 
     276 0.0099084715   -797.04367            0   -797.04351     14440.55 
     277  0.010378703   -797.04371            0   -797.04354    14440.157 
     278  0.010852751   -797.04375            0   -797.04357    14439.755 
     279  0.011329993   -797.04379            0    -797.0436     14439.34 
     280  0.011806727   -797.04383            0   -797.04364     14438.93 
     281  0.012263064   -797.04387            0   -797.04367    14438.465 
     282  0.012436984   -797.04391            0   -797.04371     14438.15 
     283 0.0099433863   -797.04395            0   -797.04379    14437.368 
     284 0.0014250292   -797.04396            0   -797.04394    14437.475 
     285 0.00066109362   -797.04397            0   -797.04396    14437.309 
     286 0.00075447421   -797.04398            0   -797.04397    14437.207 
     287 0.00087015539   -797.04399            0   -797.04397    14437.097 
     288 0.00099351304     -797.044            0   -797.04398    14436.978 
     289  0.001124388   -797.04401            0   -797.04399    14436.852 
     290  0.001262613   -797.04403            0   -797.04401    14436.718 
     291 0.0014080098   -797.04404            0   -797.04402    14436.576 
     292 0.0015603906   -797.04405            0   -797.04403    14436.425 
     293 0.0017195576   -797.04407            0   -797.04404    14436.268 
     294 0.0018853039   -797.04409            0   -797.04406    14436.102 
     295 0.0020574131    -797.0441            0   -797.04407    14435.928 
     296 0.0022356597   -797.04412            0   -797.04408    14435.747 
     297 0.0024198098   -797.04414            0    -797.0441    14435.558 
     298 0.0026096208   -797.04416            0   -797.04412    14435.362 
     299  0.002804842   -797.04418            0   -797.04413    14435.158 
     300 0.0030052149    -797.0442            0   -797.04415    14434.947 
     301 0.0032104732   -797.04422            0   -797.04417    14434.728 
     302 0.0034203434   -797.04424            0   -797.04419    14434.502 
     303 0.0036345449   -797.04427            0   -797.04421    14434.269 
     304 0.0038527908   -797.04429            0   -797.04423    14434.028 
     305  0.004074787   -797.04432            0   -797.04425     14433.78 
     306 0.0043002348   -797.04434            0   -797.04427    14433.526 
     307 0.0045288298   -797.04437            0   -797.04429    14433.264 
     308 0.0047602649   -797.04439            0   -797.04432    14432.996 
     309 0.0049942138   -797.04442            0   -797.04434    14432.721 
     310  0.005230381   -797.04445            0   -797.04436    14432.438 
     311 0.0054683565   -797.04448            0   -797.04439    14432.151 
     312 0.0057079207   -797.04451            0   -797.04442    14431.854 
     313 0.0059471642   -797.04454            0   -797.04444    14431.559 
     314 0.0061781866   -797.04457            0   -797.04447     14431.23 
     315 0.0062874395    -797.0446            0    -797.0445    14430.992 
     316 0.0052340085   -797.04463            0   -797.04455    14430.471 
     317 0.00093902858   -797.04464            0   -797.04462    14430.563 
     318 0.00024162762   -797.04465            0   -797.04464    14430.437 
     319 0.00028242737   -797.04465            0   -797.04465    14430.363 
     320 0.00033252288   -797.04466            0   -797.04465    14430.294 
     321 0.00038717845   -797.04467            0   -797.04466     14430.22 
     322 0.00044575306   -797.04467            0   -797.04467    14430.141 
     323 0.00050815446   -797.04468            0   -797.04467    14430.056 
     324 0.00057430206   -797.04469            0   -797.04468    14429.965 
     325 0.0006441098    -797.0447            0   -797.04469    14429.869 
     326 0.00071748657   -797.04471            0    -797.0447    14429.767 
     327 0.00079433626   -797.04472            0   -797.04471    14429.659 
     328 0.00087455783   -797.04474            0   -797.04472    14429.546 
     329 0.00095804552   -797.04475            0   -797.04473    14429.427 
     330 0.0010446889   -797.04476            0   -797.04474    14429.303 
     331 0.0011343729   -797.04477            0   -797.04476    14429.173 
     332 0.0012269784   -797.04479            0   -797.04477    14429.038 
     333 0.0013223816    -797.0448            0   -797.04478    14428.898 
     334 0.0014204552   -797.04482            0    -797.0448    14428.753 
     335 0.0015210682   -797.04483            0   -797.04481    14428.602 
     336 0.0016240844   -797.04485            0   -797.04482    14428.446 
     337 0.0017293648   -797.04487            0   -797.04484    14428.285 
     338 0.0018367668   -797.04489            0   -797.04486    14428.119 
     339 0.0019461448    -797.0449            0   -797.04487    14427.947 
     340 0.0020573495   -797.04492            0   -797.04489    14427.771 
     341 0.0021702295   -797.04494            0   -797.04491     14427.59 
     342 0.0022846289   -797.04496            0   -797.04493    14427.404 
     343 0.0024003931   -797.04498            0   -797.04494    14427.213 
     344 0.0025173554   -797.04501            0   -797.04496    14427.018 
     345 0.0026353724   -797.04503            0   -797.04498    14426.818 
     346 0.0027542286   -797.04505            0     -797.045    14426.613 
     347 0.0028739155   -797.04507            0   -797.04503    14426.403 
     348 0.0029938672    -797.0451            0   -797.04505    14426.191 
     349 0.0031160396   -797.04512            0   -797.04507    14425.966 
     350 0.0032427669   -797.04514            0   -797.04509    14425.766 
     351 0.0034791243   -797.04517            0   -797.04511     14425.47 
     352 0.0047466151   -797.04518            0   -797.04511     14425.51 
     353 0.0065820372   -797.04521            0   -797.04511    14424.995 
     354 0.00015537605   -797.04521            0   -797.04521    14424.956 
     355 0.00017494292   -797.04521            0   -797.04521    14425.002 
     356 0.00015041836   -797.04521            0   -797.04521    14425.035 
     357 0.00010677527   -797.04521            0   -797.04521    14425.043 
     358 8.9662021e-05   -797.04522            0   -797.04522    14425.029 
     359 9.9106244e-05   -797.04522            0   -797.04522        14425 
     360 0.0001184196   -797.04523            0   -797.04522    14424.962 
     361 0.00014087523   -797.04523            0   -797.04523    14424.919 
     362 0.00016528306   -797.04524            0   -797.04523    14424.871 
     363 0.00019152679   -797.04524            0   -797.04524    14424.819 
     364  0.000219574   -797.04525            0   -797.04524    14424.763 
     365 0.00024938859   -797.04525            0   -797.04525    14424.704 
     366 0.0002809314   -797.04526            0   -797.04526     14424.64 
     367 0.00031416088   -797.04527            0   -797.04526    14424.573 
     368 0.00034903311   -797.04528            0   -797.04527    14424.502 
     369 0.00038550183   -797.04528            0   -797.04528    14424.427 
     370 0.00042351851   -797.04529            0   -797.04529    14424.349 
     371 0.00046303241    -797.0453            0    -797.0453    14424.266 
     372 0.00050399063   -797.04531            0    -797.0453     14424.18 
     373 0.00054633833   -797.04532            0   -797.04531     14424.09 
     374 0.00059001845   -797.04533            0   -797.04532    14423.997 
     375 0.00063497196   -797.04534            0   -797.04533      14423.9 
     376 0.00068113802   -797.04536            0   -797.04534    14423.799 
     377 0.00072845398   -797.04537            0   -797.04536    14423.695 
     378 0.00077685545   -797.04538            0   -797.04537    14423.587 
     379 0.00082627637   -797.04539            0   -797.04538    14423.476 
     380 0.00087664914    -797.0454            0   -797.04539    14423.362 
     381 0.00092790463   -797.04542            0    -797.0454    14423.244 
     382 0.00097997272   -797.04543            0   -797.04542    14423.123 
     383 0.0010327815   -797.04545            0   -797.04543    14422.998 
     384 0.0010862575   -797.04546            0   -797.04544     14422.87 
     385 0.0011403265   -797.04548            0   -797.04546    14422.739 
     386 0.0011949131   -797.04549            0   -797.04547    14422.605 
     387  0.001249941   -797.04551            0   -797.04549    14422.467 
     388 0.0013053325   -797.04552            0    -797.0455    14422.327 
     389 0.0013610103   -797.04554            0   -797.04552    14422.184 
     390 0.0014168842   -797.04556            0   -797.04553    14422.037 
     391 0.0014728374   -797.04557            0   -797.04555    14421.888 
     392 0.0015280908   -797.04559            0   -797.04557    14421.736 
     393 0.0015753162   -797.04561            0   -797.04558    14421.579 
     394 0.0015191094   -797.04563            0    -797.0456    14421.435 
     395 0.00069797954   -797.04564            0   -797.04563    14421.299 
     396 8.9125133e-06   -797.04564            0   -797.04564    14421.286 
     397 1.5659364e-05   -797.04564            0   -797.04564    14421.278 
     398 2.5909335e-05   -797.04564            0   -797.04564    14421.264 
     399 3.6691428e-05   -797.04564            0   -797.04564    14421.244 
     400 4.6259922e-05   -797.04565            0   -797.04565     14421.22 
     401 5.598556e-05   -797.04565            0   -797.04565    14421.192 
     402 6.6490039e-05   -797.04565            0   -797.04565    14421.162 
     403 7.7845395e-05   -797.04566            0   -797.04566     14421.13 
     404 9.0042548e-05   -797.04566            0   -797.04566    14421.094 
     405 0.00010306589   -797.04567            0   -797.04567    14421.056 
     406 0.00011689829   -797.04567            0   -797.04567    14421.016 
     407 0.00013152143   -797.04568            0   -797.04567    14420.972 
     408 0.00014691592   -797.04568            0   -797.04568    14420.927 
     409 0.00016306123   -797.04569            0   -797.04568    14420.878 
     410 0.00017993578   -797.04569            0   -797.04569    14420.828 
     411 0.00019751694    -797.0457            0    -797.0457    14420.774 
     412 0.00021578107   -797.04571            0    -797.0457    14420.718 
     413 0.00023470353   -797.04571            0   -797.04571     14420.66 
     414 0.00025425873   -797.04572            0   -797.04572    14420.599 
     415 0.00027442016   -797.04573            0   -797.04572    14420.536 
     416 0.0002951604   -797.04574            0   -797.04573     14420.47 
     417 0.00031645117   -797.04574            0   -797.04574    14420.402 
     418 0.00033826334   -797.04575            0   -797.04575    14420.331 
     419 0.00036056703   -797.04576            0   -797.04575    14420.258 
     420 0.00038333163   -797.04577            0   -797.04576    14420.183 
     421 0.00040652577   -797.04578            0   -797.04577    14420.106 
     422 0.00043011744   -797.04579            0   -797.04578    14420.026 
     423 0.00045407394    -797.0458            0   -797.04579    14419.944 
     424 0.00047836202   -797.04581            0    -797.0458    14419.859 
     425 0.00050294781   -797.04582            0   -797.04581    14419.773 
     426 0.00052779698   -797.04583            0   -797.04582    14419.684 
     427 0.00055287467   -797.04584            0   -797.04583    14419.594 
     428 0.00057814563   -797.04585            0   -797.04584    14419.501 
     429 0.0006035741   -797.04586            0   -797.04585    14419.406 
     430 0.00062912414   -797.04587            0   -797.04586    14419.309 
     431 0.00065475794   -797.04589            0   -797.04588     14419.21 
     432 0.00068043177    -797.0459            0   -797.04589    14419.109 
     433 0.00070599892   -797.04591            0    -797.0459    14419.007 
     434 0.00073012971   -797.04592            0   -797.04591    14418.902 
     435 0.00073483674   -797.04594            0   -797.04592    14418.799 
     436 0.00052294612   -797.04595            0   -797.04594    14418.699 
     437 2.6177436e-05   -797.04595            0   -797.04595     14418.68 
     438 4.1014365e-05   -797.04595            0   -797.04595    14418.657 
     439 4.6760279e-05   -797.04596            0   -797.04595    14418.632 
     440 5.3161789e-05   -797.04596            0   -797.04596    14418.605 
     441 5.994538e-05   -797.04596            0   -797.04596    14418.576 
     442 6.7095256e-05   -797.04597            0   -797.04597    14418.545 
     443 7.4601665e-05   -797.04597            0   -797.04597    14418.513 
     444 8.2454421e-05   -797.04597            0   -797.04597    14418.478 
     445 9.0642992e-05   -797.04598            0   -797.04598    14418.442 
     446  9.91563e-05   -797.04598            0   -797.04598    14418.405 
     447 0.00010798284   -797.04599            0   -797.04599    14418.366 
     448 0.00011711063   -797.04599            0   -797.04599    14418.324 
     449 0.00012652725     -797.046            0     -797.046    14418.282 
     450 0.00013621985     -797.046            0     -797.046    14418.237 
     451 0.00014617519   -797.04601            0   -797.04601    14418.191 
     452 0.00015637959   -797.04602            0   -797.04601    14418.144 
     453 0.00016681908   -797.04602            0   -797.04602    14418.094 
     454 0.00017747919   -797.04603            0   -797.04603    14418.044 
     455 0.00018834528   -797.04603            0   -797.04603    14417.991 
     456 0.00019940188   -797.04604            0   -797.04604    14417.937 
     457 0.00021063348   -797.04605            0   -797.04604    14417.882 
     458 0.0002220201   -797.04606            0   -797.04605    14417.825 
     459 0.00023353096   -797.04606            0   -797.04606    14417.766 
     460 0.00024504286   -797.04607            0   -797.04607    14417.707 
     461 0.00025589313   -797.04608            0   -797.04607    14417.644 
     462 0.00026139377   -797.04609            0   -797.04608    14417.585 
     463 0.00023103186   -797.04609            0   -797.04609    14417.517 
     464 8.9791392e-05    -797.0461            0    -797.0461    14417.494 
     465 1.2912843e-05    -797.0461            0    -797.0461    14417.474 
     466 1.7888951e-05    -797.0461            0    -797.0461    14417.457 
     467 2.1038224e-05    -797.0461            0    -797.0461     14417.44 
     468 2.4391133e-05   -797.04611            0   -797.04611    14417.422 
     469 2.7975507e-05   -797.04611            0   -797.04611    14417.402 
     470 3.1786329e-05   -797.04611            0   -797.04611    14417.382 
     471 3.5818535e-05   -797.04611            0   -797.04611    14417.359 
     472 4.0066742e-05   -797.04612            0   -797.04612    14417.336 
     473 4.4525258e-05   -797.04612            0   -797.04612    14417.311 
     474 4.918809e-05   -797.04612            0   -797.04612    14417.284 
     475 5.4048951e-05   -797.04613            0   -797.04613    14417.257 
     476 5.9101266e-05   -797.04613            0   -797.04613    14417.228 
     477 6.4338187e-05   -797.04613            0   -797.04613    14417.197 
     478 6.9752591e-05   -797.04614            0   -797.04614    14417.166 
     479 7.5337098e-05   -797.04614            0   -797.04614    14417.133 
     480 8.1084075e-05   -797.04615            0   -797.04615    14417.099 
     481 8.6985649e-05   -797.04615            0   -797.04615    14417.064 
     482 9.3033713e-05   -797.04616            0   -797.04615    14417.027 
     483 9.9219938e-05   -797.04616            0   -797.04616    14416.989 
     484 0.00010553578   -797.04617            0   -797.04616     14416.95 
     485 0.00011197251   -797.04617            0   -797.04617     14416.91 
     486 0.00011852119   -797.04618            0   -797.04617    14416.868 
     487 0.00012517272   -797.04618            0   -797.04618    14416.825 
     488 0.00013191779   -797.04619            0   -797.04619    14416.782 
     489 0.00013874698   -797.04619            0   -797.04619    14416.737 
     490 0.00014565068    -797.0462            0    -797.0462    14416.691 
     491 0.00015261918   -797.04621            0    -797.0462    14416.643 
     492 0.00015964252   -797.04621            0   -797.04621    14416.595 
     493 0.00016671032   -797.04622            0   -797.04622    14416.546 
     494 0.00017380747   -797.04623            0   -797.04622    14416.495 
     495 0.00018087746   -797.04623            0   -797.04623    14416.443 
     496 0.00018739355   -797.04624            0   -797.04624    14416.391 
     497 0.00018739428   -797.04625            0   -797.04624    14416.337 
     498 0.00012758087   -797.04625            0   -797.04625    14416.298 
     499 7.8345893e-06   -797.04625            0   -797.04625    14416.283 
     500 1.1737546e-05   -797.04625            0   -797.04625     14416.27 
     501 1.3470381e-05   -797.04626            0   -797.04626    14416.257 
     502 1.5374382e-05   -797.04626            0   -797.04626    14416.242 
     503 1.7394754e-05   -797.04626            0   -797.04626    14416.227 
     504 1.9527864e-05   -797.04626            0   -797.04626     14416.21 
     505 2.1770817e-05   -797.04627            0   -797.04626    14416.193 
     506 2.4120585e-05   -797.04627            0   -797.04627    14416.175 
     507 2.6574004e-05   -797.04627            0   -797.04627    14416.155 
     508 2.9127752e-05   -797.04627            0   -797.04627    14416.135 
     509 3.1778368e-05   -797.04628            0   -797.04628    14416.114 
     510 3.4522244e-05   -797.04628            0   -797.04628    14416.092 
     511 3.7355641e-05   -797.04628            0   -797.04628    14416.069 
     512 4.0274681e-05   -797.04629            0   -797.04628    14416.045 
     513 4.3275365e-05   -797.04629            0   -797.04629     14416.02 
     514 4.6353564e-05   -797.04629            0   -797.04629    14415.994 
     515 4.9505045e-05    -797.0463            0   -797.04629    14415.967 
     516 5.2725435e-05    -797.0463            0    -797.0463     14415.94 
     517 5.6010299e-05    -797.0463            0    -797.0463    14415.911 
     518 5.9355009e-05   -797.04631            0   -797.04631    14415.882 
     519 6.2754957e-05   -797.04631            0   -797.04631    14415.852 
     520 6.6204936e-05   -797.04632            0   -797.04631    14415.821 
     521 6.9699371e-05   -797.04632            0   -797.04632    14415.789 
     522 7.3224974e-05   -797.04632            0   -797.04632    14415.756 
     523 7.6733687e-05   -797.04633            0   -797.04633    14415.722 
     524 7.9887139e-05   -797.04633            0   -797.04633     14415.69 
     525 8.0260904e-05   -797.04634            0   -797.04634    14415.652 
     526 6.2511861e-05   -797.04634            0   -797.04634     14415.63 
     527 1.3998462e-05   -797.04634            0   -797.04634    14415.606 
     528 4.9916821e-06   -797.04635            0   -797.04635    14415.601 
     529 6.0321335e-06   -797.04635            0   -797.04635    14415.592 
     530 7.0244105e-06   -797.04635            0   -797.04635    14415.583 
     531 8.087744e-06   -797.04635            0   -797.04635    14415.572 
     532 9.2204531e-06   -797.04635            0   -797.04635    14415.561 
     533 1.0421018e-05   -797.04635            0   -797.04635    14415.549 
     534 1.1687835e-05   -797.04635            0   -797.04635    14415.536 
     535 1.3019205e-05   -797.04636            0   -797.04636    14415.523 
     536 1.4413334e-05   -797.04636            0   -797.04636    14415.509 
     537 1.586834e-05   -797.04636            0   -797.04636    14415.494 
     538 1.7382251e-05   -797.04636            0   -797.04636    14415.478 
     539 1.8953011e-05   -797.04637            0   -797.04636    14415.462 
     540 2.0578478e-05   -797.04637            0   -797.04637    14415.444 
     541 2.225643e-05   -797.04637            0   -797.04637    14415.427 
     542 2.398457e-05   -797.04637            0   -797.04637    14415.408 
     543 2.5760521e-05   -797.04638            0   -797.04637    14415.389 
     544 2.7581837e-05   -797.04638            0   -797.04638    14415.369 
     545 2.9446002e-05   -797.04638            0   -797.04638    14415.348 
     546 3.1350432e-05   -797.04638            0   -797.04638    14415.327 
     547 3.3292481e-05   -797.04639            0   -797.04639    14415.305 
     548 3.5269442e-05   -797.04639            0   -797.04639    14415.283 
     549 3.7278551e-05   -797.04639            0   -797.04639    14415.259 
     550 3.9316992e-05    -797.0464            0    -797.0464    14415.235 
     551 4.1381888e-05    -797.0464            0    -797.0464    14415.211 
     552 4.3470341e-05    -797.0464            0    -797.0464    14415.186 
     553 4.5579343e-05   -797.04641            0   -797.04641     14415.16 
     554 4.7706003e-05   -797.04641            0   -797.04641    14415.133 
     555 4.9846902e-05   -797.04642            0   -797.04641    14415.106 
     556 5.1999457e-05   -797.04642            0   -797.04642    14415.079 
     557 5.4153425e-05   -797.04642            0   -797.04642    14415.051 
     558 5.6269945e-05   -797.04643            0   -797.04643     14415.02 
     559 5.7803923e-05   -797.04643            0   -797.04643    14414.998 
     560 5.3121382e-05   -797.04644            0   -797.04644    14414.946 
     561 1.7398053e-05   -797.04644            0   -797.04644    14414.971 
     562 7.2879022e-07   -797.04644            0   -797.04644    14414.961 
     563 9.9818328e-07   -797.04644            0   -797.04644    14414.952 
     564 1.289597e-06   -797.04644            0   -797.04644    14414.944 
     565 1.6122238e-06   -797.04644            0   -797.04644    14414.938 
     566 1.9793184e-06   -797.04644            0   -797.04644    14414.933 
     567 2.3871796e-06   -797.04644            0   -797.04644    14414.927 
     568 2.8324306e-06   -797.04644            0   -797.04644    14414.921 
     569 3.3138996e-06   -797.04644            0   -797.04644    14414.914 
     570 3.8308893e-06   -797.04644            0   -797.04644    14414.907 
     571 4.3827088e-06   -797.04645            0   -797.04645    14414.899 
     572 4.9686226e-06   -797.04645            0   -797.04645    14414.891 
     573 5.5878469e-06   -797.04645            0   -797.04645    14414.882 
     574 6.2395498e-06   -797.04645            0   -797.04645    14414.873 
     575 6.9228525e-06   -797.04645            0   -797.04645    14414.863 
     576 7.6368304e-06   -797.04645            0   -797.04645    14414.852 
     577 8.3805143e-06   -797.04645            0   -797.04645    14414.841 
     578 9.1528914e-06   -797.04646            0   -797.04646     14414.83 
     579 9.9529064e-06   -797.04646            0   -797.04646    14414.818 
     580 1.0779463e-05   -797.04646            0   -797.04646    14414.806 
     581 1.1631425e-05   -797.04646            0   -797.04646    14414.793 
     582 1.2507618e-05   -797.04646            0   -797.04646    14414.779 
     583 1.340683e-05   -797.04647            0   -797.04646    14414.765 
     584 1.4327814e-05   -797.04647            0   -797.04647    14414.751 
     585 1.5269288e-05   -797.04647            0   -797.04647    14414.736 
     586 1.6229937e-05   -797.04647            0   -797.04647    14414.721 
     587 1.7208415e-05   -797.04647            0   -797.04647    14414.705 
     588 1.8203348e-05   -797.04648            0   -797.04648    14414.688 
     589 1.9213333e-05   -797.04648            0   -797.04648    14414.672 
     590 2.0236935e-05   -797.04648            0   -797.04648    14414.654 
     591 2.1272698e-05   -797.04648            0   -797.04648    14414.637 
     592 2.231914e-05   -797.04649            0   -797.04649    14414.618 
     593 2.3374759e-05   -797.04649            0   -797.04649      14414.6 
     594 2.4438029e-05   -797.04649            0   -797.04649    14414.581 
     595 2.5507408e-05    -797.0465            0    -797.0465    14414.561 
     596 2.6581323e-05    -797.0465            0    -797.0465    14414.541 
     597 2.7658222e-05    -797.0465            0    -797.0465    14414.521 
     598 2.8736427e-05    -797.0465            0    -797.0465      14414.5 
     599 2.9814773e-05   -797.04651            0   -797.04651    14414.479 
     600 3.0892301e-05   -797.04651            0   -797.04651    14414.458 
     601 3.2000305e-05   -797.04651            0   -797.04651    14414.433 
     602 3.3575711e-05   -797.04652            0   -797.04652    14414.425 
     603 3.9016351e-05   -797.04652            0   -797.04652    14414.356 
     604 5.9980323e-06   -797.04652            0   -797.04652    14414.381 
     605 2.337898e-06   -797.04652            0   -797.04652    14414.388 
     606 1.6404936e-06   -797.04652            0   -797.04652    14414.382 
     607 1.8835627e-06   -797.04652            0   -797.04652    14414.377 
     608 2.144097e-06   -797.04652            0   -797.04652    14414.372 
     609 2.4200166e-06   -797.04653            0   -797.04653    14414.366 
     610 2.7109571e-06   -797.04653            0   -797.04653     14414.36 
     611 3.0165113e-06   -797.04653            0   -797.04653    14414.353 
     612 3.3362688e-06   -797.04653            0   -797.04653    14414.346 
     613 3.6697899e-06   -797.04653            0   -797.04653    14414.339 
     614  4.01662e-06   -797.04653            0   -797.04653    14414.331 
     615 4.3762802e-06   -797.04653            0   -797.04653    14414.323 
     616 4.7482758e-06   -797.04653            0   -797.04653    14414.315 
     617 5.1320901e-06   -797.04653            0   -797.04653    14414.306 
     618 5.5271914e-06   -797.04654            0   -797.04654    14414.297 
     619 5.9330261e-06   -797.04654            0   -797.04654    14414.288 
     620 6.3490293e-06   -797.04654            0   -797.04654    14414.278 
     621 6.7746111e-06   -797.04654            0   -797.04654    14414.268 
     622 7.2091788e-06   -797.04654            0   -797.04654    14414.258 
     623 7.6521023e-06   -797.04654            0   -797.04654    14414.247 
     624 8.1027771e-06   -797.04655            0   -797.04655    14414.236 
     625 8.5605066e-06   -797.04655            0   -797.04655    14414.225 
     626 9.0247445e-06   -797.04655            0   -797.04655    14414.213 
     627 9.494586e-06   -797.04655            0   -797.04655    14414.201 
     628 9.9700313e-06   -797.04655            0   -797.04655    14414.189 
     629 1.0449623e-05   -797.04656            0   -797.04656    14414.177 
     630 1.0942477e-05   -797.04656            0   -797.04656    14414.161 
     631 1.1488206e-05   -797.04656            0   -797.04656    14414.155 
     632 1.2514158e-05   -797.04656            0   -797.04656    14414.123 
     633 1.3343895e-05   -797.04656            0   -797.04656    14414.155 
     634 2.4762934e-06   -797.04656            0   -797.04656    14414.132 
     635 9.1571228e-07   -797.04656            0   -797.04656    14414.122 
     636 8.6894367e-07   -797.04657            0   -797.04656    14414.119 
     637 1.0053695e-06   -797.04657            0   -797.04657    14414.115 
     638 1.1511161e-06   -797.04657            0   -797.04657    14414.111 
     639 1.3059193e-06   -797.04657            0   -797.04657    14414.106 
     640 1.4695716e-06   -797.04657            0   -797.04657    14414.102 
     641 1.6418493e-06   -797.04657            0   -797.04657    14414.097 
     642 1.822517e-06   -797.04657            0   -797.04657    14414.092 
     643 2.0113262e-06   -797.04657            0   -797.04657    14414.086 
     644 2.2080167e-06   -797.04657            0   -797.04657     14414.08 
     645 2.4123157e-06   -797.04657            0   -797.04657    14414.074 
     646 2.6239392e-06   -797.04657            0   -797.04657    14414.068 
     647 2.8425915e-06   -797.04657            0   -797.04657    14414.062 
     648 3.067966e-06   -797.04658            0   -797.04658    14414.055 
     649 3.2997452e-06   -797.04658            0   -797.04658    14414.048 
     650 3.5376014e-06   -797.04658            0   -797.04658     14414.04 
     651 3.7811962e-06   -797.04658            0   -797.04658    14414.033 
     652 4.0301821e-06   -797.04658            0   -797.04658    14414.025 
     653 4.2842013e-06   -797.04658            0   -797.04658    14414.017 
     654 4.5428879e-06   -797.04658            0   -797.04658    14414.009 
     655 4.8058654e-06   -797.04658            0   -797.04658        14414 
     656 5.0727522e-06   -797.04659            0   -797.04659    14413.991 
     657 5.3431509e-06   -797.04659            0   -797.04659    14413.982 
     658 5.6166736e-06   -797.04659            0   -797.04659    14413.973 
     659 5.8928835e-06   -797.04659            0   -797.04659    14413.963 
     660 6.1714461e-06   -797.04659            0   -797.04659    14413.953 
     661 6.4517635e-06   -797.04659            0   -797.04659    14413.943 
     662 6.7343395e-06    -797.0466            0    -797.0466    14413.932 
     663 7.0202406e-06    -797.0466            0    -797.0466    14413.924 
     664 7.3515125e-06    -797.0466            0    -797.0466    14413.907 
     665 8.0705948e-06    -797.0466            0    -797.0466    14413.914 
     666 8.3930512e-06    -797.0466            0    -797.0466    14413.872 
     667 5.0312609e-07    -797.0466            0    -797.0466     14413.88 
     668 4.2950504e-07    -797.0466            0    -797.0466    14413.886 
     669 2.9889915e-07    -797.0466            0    -797.0466    14413.889 
     670 2.8563006e-07    -797.0466            0    -797.0466    14413.888 
     671 3.3579226e-07    -797.0466            0    -797.0466    14413.886 
     672 3.9818795e-07    -797.0466            0    -797.0466    14413.884 
     673 4.6596218e-07    -797.0466            0    -797.0466    14413.881 
     674 5.3873446e-07   -797.04661            0   -797.04661    14413.878 
     675 6.1640549e-07   -797.04661            0   -797.04661    14413.875 
     676 6.9886882e-07   -797.04661            0   -797.04661    14413.872 
     677 7.8601087e-07   -797.04661            0   -797.04661    14413.869 
     678 8.7771101e-07   -797.04661            0   -797.04661    14413.865 
     679 9.7384166e-07   -797.04661            0   -797.04661    14413.861 
     680 1.0742684e-06   -797.04661            0   -797.04661    14413.857 
     681 1.1788502e-06   -797.04661            0   -797.04661    14413.853 
     682 1.2874395e-06   -797.04661            0   -797.04661    14413.848 
     683 1.3998822e-06   -797.04661            0   -797.04661    14413.844 
     684 1.516018e-06   -797.04661            0   -797.04661    14413.839 
     685 1.6356806e-06   -797.04661            0   -797.04661    14413.834 
     686 1.7586976e-06   -797.04661            0   -797.04661    14413.828 
     687 1.8848909e-06   -797.04661            0   -797.04661    14413.823 
     688 2.0140767e-06   -797.04662            0   -797.04662    14413.817 
     689 2.1460657e-06   -797.04662            0   -797.04662    14413.811 
     690 2.2806631e-06   -797.04662            0   -797.04662    14413.805 
     691 2.4176691e-06   -797.04662            0   -797.04662    14413.799 
     692 2.5568788e-06   -797.04662            0   -797.04662    14413.793 
     693 2.6980822e-06   -797.04662            0   -797.04662    14413.786 
     694 2.8410647e-06   -797.04662            0   -797.04662    14413.779 
     695 2.9856068e-06   -797.04662            0   -797.04662    14413.772 
     696 3.131485e-06   -797.04663            0   -797.04663    14413.765 
     697 3.2784698e-06   -797.04663            0   -797.04663    14413.758 
     698 3.4263309e-06   -797.04663            0   -797.04663     14413.75 
     699 3.5748254e-06   -797.04663            0   -797.04663    14413.743 
     700 3.7237258e-06   -797.04663            0   -797.04663    14413.735 
     701 3.8727508e-06   -797.04663            0   -797.04663    14413.727 
     702 4.0217346e-06   -797.04663            0   -797.04663    14413.719 
     703 4.1701217e-06   -797.04664            0   -797.04663     14413.71 
     704 4.3174809e-06   -797.04664            0   -797.04664    14413.702 
     705 4.4516948e-06   -797.04664            0   -797.04664    14413.693 
     706 4.3149243e-06   -797.04664            0   -797.04664    14413.685 
     707 7.5169447e-07   -797.04664            0   -797.04664    14413.684 
     708 2.3802179e-07   -797.04664            0   -797.04664    14413.682 
     709 2.6944474e-07   -797.04664            0   -797.04664     14413.68 
     710 3.0762604e-07   -797.04664            0   -797.04664    14413.678 
     711 3.4818143e-07   -797.04664            0   -797.04664    14413.676 
     712 3.9100372e-07   -797.04664            0   -797.04664    14413.673 
     713 4.3601945e-07   -797.04664            0   -797.04664     14413.67 
     714 4.8316783e-07   -797.04664            0   -797.04664    14413.668 
     715 5.3237815e-07   -797.04664            0   -797.04664    14413.665 
     716 5.8358068e-07   -797.04664            0   -797.04664    14413.662 
     717 6.3669905e-07   -797.04664            0   -797.04664    14413.658 
     718 6.9165653e-07   -797.04665            0   -797.04665    14413.655 
     719 7.4837029e-07   -797.04665            0   -797.04665    14413.651 
     720 8.0675753e-07   -797.04665            0   -797.04665    14413.648 
     721 8.6672843e-07   -797.04665            0   -797.04665    14413.644 
     722 9.2819548e-07   -797.04665            0   -797.04665     14413.64 
     723 9.9106029e-07   -797.04665            0   -797.04665    14413.636 
     724 1.0552341e-06   -797.04665            0   -797.04665    14413.632 
     725 1.1206034e-06   -797.04665            0   -797.04665    14413.627 
     726 1.1870913e-06   -797.04665            0   -797.04665    14413.623 
     727 1.2545347e-06   -797.04665            0   -797.04665    14413.618 
     728 1.3229158e-06   -797.04665            0   -797.04665    14413.613 
     729 1.3917256e-06   -797.04665            0   -797.04665    14413.608 
     730 1.4606338e-06   -797.04666            0   -797.04665    14413.603 
     731 1.5220942e-06   -797.04666            0   -797.04666    14413.598 
     732 1.5363784e-06   -797.04666            0   -797.04666    14413.594 
     733 1.191668e-06   -797.04666            0   -797.04666    14413.589 
     734 2.5137056e-07   -797.04666            0   -797.04666    14413.588 
     735 1.3506093e-07   -797.04666            0   -797.04666    14413.587 
     736 1.5657582e-07   -797.04666            0   -797.04666    14413.585 
     737 1.7989744e-07   -797.04666            0   -797.04666    14413.583 
     738 2.0470192e-07   -797.04666            0   -797.04666    14413.581 
     739 2.3095555e-07   -797.04666            0   -797.04666     14413.58 
     740 2.5861873e-07   -797.04666            0   -797.04666    14413.577 
     741 2.8765114e-07   -797.04666            0   -797.04666    14413.575 
     742 3.1800954e-07   -797.04666            0   -797.04666    14413.573 
     743 3.4964875e-07   -797.04666            0   -797.04666     14413.57 
     744 3.8252115e-07   -797.04666            0   -797.04666    14413.568 
     745 4.1657711e-07   -797.04666            0   -797.04666    14413.565 
     746 4.5176465e-07   -797.04666            0   -797.04666    14413.562 
     747 4.8802987e-07   -797.04666            0   -797.04666    14413.559 
     748 5.2531656e-07   -797.04666            0   -797.04666    14413.556 
     749 5.6356675e-07   -797.04666            0   -797.04666    14413.553 
     750 6.0272002e-07   -797.04667            0   -797.04667     14413.55 
     751 6.4271464e-07   -797.04667            0   -797.04667    14413.547 
     752 6.8348582e-07   -797.04667            0   -797.04667    14413.543 
     753 7.2496899e-07   -797.04667            0   -797.04667     14413.54 
     754 7.6709394e-07   -797.04667            0   -797.04667    14413.536 
     755 8.0979562e-07   -797.04667            0   -797.04667    14413.532 
     756 8.5298952e-07   -797.04667            0   -797.04667    14413.528 
     757 8.9662165e-07   -797.04667            0   -797.04667    14413.524 
     758 9.4049155e-07   -797.04667            0   -797.04667     14413.52 
     759 9.8428002e-07   -797.04667            0   -797.04667    14413.516 
     760 1.0238218e-06   -797.04667            0   -797.04667    14413.511 
     761 1.0286406e-06   -797.04667            0   -797.04667    14413.508 
     762 7.6576228e-07   -797.04667            0   -797.04667    14413.502 
     763 1.1393737e-07   -797.04667            0   -797.04667    14413.502 
     764 7.8754056e-08   -797.04668            0   -797.04668    14413.501 
     765 9.0765217e-08   -797.04668            0   -797.04668      14413.5 
     766 1.0464799e-07   -797.04668            0   -797.04668    14413.499 
     767 1.1944179e-07   -797.04668            0   -797.04668    14413.497 
     768 1.3512161e-07   -797.04668            0   -797.04668    14413.496 
     769 1.5166253e-07   -797.04668            0   -797.04668    14413.494 
     770 1.6903954e-07   -797.04668            0   -797.04668    14413.492 
     771 1.8722569e-07   -797.04668            0   -797.04668    14413.491 
     772 2.0619286e-07   -797.04668            0   -797.04668    14413.489 
     773 2.2591131e-07   -797.04668            0   -797.04668    14413.487 
     774   2.4635e-07   -797.04668            0   -797.04668    14413.484 
     775 2.6747641e-07   -797.04668            0   -797.04668    14413.482 
     776 2.8925673e-07   -797.04668            0   -797.04668     14413.48 
     777 3.1165566e-07   -797.04668            0   -797.04668    14413.478 
     778 3.3463677e-07   -797.04668            0   -797.04668    14413.475 
     779 3.5816202e-07   -797.04668            0   -797.04668    14413.472 
     780 3.8219249e-07   -797.04668            0   -797.04668     14413.47 
     781 4.066873e-07   -797.04668            0   -797.04668    14413.467 
     782 4.3160534e-07   -797.04668            0   -797.04668    14413.464 
     783 4.5690176e-07   -797.04668            0   -797.04668    14413.461 
     784 4.8253227e-07   -797.04668            0   -797.04668    14413.458 
     785 5.0842906e-07   -797.04668            0   -797.04668    14413.455 
     786 5.3445363e-07   -797.04669            0   -797.04669    14413.452 
     787 5.5977901e-07   -797.04669            0   -797.04669    14413.448 
     788 5.7868423e-07   -797.04669            0   -797.04669    14413.446 
     789 5.4660926e-07   -797.04669            0   -797.04669     14413.44 
     790 2.8201049e-07   -797.04669            0   -797.04669    14413.442 
     791 3.2002893e-08   -797.04669            0   -797.04669     14413.44 
     792 3.4842436e-08   -797.04669            0   -797.04669    14413.439 
     793 4.0448231e-08   -797.04669            0   -797.04669    14413.438 
     794 4.7911815e-08   -797.04669            0   -797.04669    14413.437 
     795 5.5997506e-08   -797.04669            0   -797.04669    14413.436 
     796 6.4668423e-08   -797.04669            0   -797.04669    14413.435 
     797  7.39111e-08   -797.04669            0   -797.04669    14413.433 
     798 8.3710963e-08   -797.04669            0   -797.04669    14413.432 
     799 9.4052449e-08   -797.04669            0   -797.04669    14413.431 
     800  1.04919e-07   -797.04669            0   -797.04669    14413.429 
     801 1.1629309e-07   -797.04669            0   -797.04669    14413.428 
     802 1.281562e-07   -797.04669            0   -797.04669    14413.426 
     803 1.4048888e-07   -797.04669            0   -797.04669    14413.425 
     804 1.5327072e-07   -797.04669            0   -797.04669    14413.423 
     805 1.664804e-07   -797.04669            0   -797.04669    14413.421 
     806 1.8009564e-07   -797.04669            0   -797.04669    14413.419 
     807 1.940933e-07   -797.04669            0   -797.04669    14413.417 
     808 2.0844931e-07   -797.04669            0   -797.04669    14413.415 
     809 2.2313876e-07   -797.04669            0   -797.04669    14413.413 
     810 2.3813582e-07   -797.04669            0   -797.04669    14413.411 
     811 2.5341386e-07   -797.04669            0   -797.04669    14413.409 
     812 2.6894537e-07    -797.0467            0    -797.0467    14413.406 
     813 2.8470205e-07    -797.0467            0    -797.0467    14413.404 
     814 3.0065473e-07    -797.0467            0    -797.0467    14413.401 
     815 3.1677358e-07    -797.0467            0    -797.0467    14413.399 
     816 3.3302762e-07    -797.0467            0    -797.0467    14413.396 
     817 3.4938594e-07    -797.0467            0    -797.0467    14413.393 
     818 3.6581467e-07    -797.0467            0    -797.0467    14413.391 
     819 3.8228458e-07    -797.0467            0    -797.0467    14413.388 
     820 3.9874386e-07    -797.0467            0    -797.0467    14413.385 
     821 4.1514241e-07    -797.0467            0    -797.0467    14413.382 
     822 4.3064947e-07    -797.0467            0    -797.0467    14413.379 
     823 4.3729559e-07    -797.0467            0    -797.0467    14413.376 
     824 3.4263097e-07    -797.0467            0    -797.0467    14413.372 
     825 3.3253341e-08    -797.0467            0    -797.0467    14413.373 
     826 2.6531378e-08    -797.0467            0    -797.0467    14413.372 
     827 2.9290702e-08    -797.0467            0    -797.0467    14413.371 
     828 3.4002618e-08    -797.0467            0    -797.0467    14413.371 
     829 3.9051171e-08    -797.0467            0    -797.0467     14413.37 
     830 4.4416597e-08    -797.0467            0    -797.0467    14413.369 
     831 5.0088551e-08    -797.0467            0    -797.0467    14413.368 
     832 5.6057546e-08    -797.0467            0    -797.0467    14413.367 
     833 6.2313183e-08    -797.0467            0    -797.0467    14413.365 
     834 6.8844672e-08    -797.0467            0    -797.0467    14413.364 
     835 7.5640525e-08   -797.04671            0   -797.04671    14413.363 
     836 8.2688775e-08   -797.04671            0   -797.04671    14413.362 
     837 8.9976815e-08   -797.04671            0   -797.04671     14413.36 
     838 9.7491555e-08   -797.04671            0   -797.04671    14413.359 
     839 1.0521929e-07   -797.04671            0   -797.04671    14413.357 
     840 1.1314585e-07   -797.04671            0   -797.04671    14413.356 
     841 1.2125644e-07   -797.04671            0   -797.04671    14413.354 
     842 1.2953583e-07   -797.04671            0   -797.04671    14413.352 
     843 1.3796807e-07   -797.04671            0   -797.04671    14413.351 
     844 1.4653615e-07   -797.04671            0   -797.04671    14413.349 
     845 1.5522051e-07   -797.04671            0   -797.04671    14413.347 
     846 1.6398571e-07   -797.04671            0   -797.04671    14413.345 
     847 1.7272312e-07   -797.04671            0   -797.04671    14413.343 
     848 1.8079944e-07   -797.04671            0   -797.04671    14413.341 
     849 1.8402289e-07   -797.04671            0   -797.04671    14413.338 
     850 1.4962489e-07   -797.04671            0   -797.04671     14413.34 
     851 3.4157861e-08   -797.04671            0   -797.04671    14413.337 
     852 1.6567119e-08   -797.04671            0   -797.04671    14413.336 
     853 1.950531e-08   -797.04671            0   -797.04671    14413.336 
     854 2.2687137e-08   -797.04671            0   -797.04671    14413.335 
     855 2.6089118e-08   -797.04671            0   -797.04671    14413.334 
     856 2.9705022e-08   -797.04671            0   -797.04671    14413.334 
     857 3.3528405e-08   -797.04671            0   -797.04671    14413.333 
     858 3.7552434e-08   -797.04671            0   -797.04671    14413.332 
     859 4.1769837e-08   -797.04671            0   -797.04671    14413.331 
     860 4.6172944e-08   -797.04671            0   -797.04671     14413.33 
     861 5.0753659e-08   -797.04671            0   -797.04671    14413.329 
     862 5.5503503e-08   -797.04671            0   -797.04671    14413.328 
     863 6.041358e-08   -797.04671            0   -797.04671    14413.326 
     864 6.5474632e-08   -797.04671            0   -797.04671    14413.325 
     865 7.0676987e-08   -797.04671            0   -797.04671    14413.324 
     866 7.6010656e-08   -797.04671            0   -797.04671    14413.323 
     867 8.146519e-08   -797.04671            0   -797.04671    14413.321 
     868 8.7029961e-08   -797.04672            0   -797.04672     14413.32 
     869 9.2693655e-08   -797.04672            0   -797.04672    14413.318 
     870 9.8445338e-08   -797.04672            0   -797.04672    14413.317 
     871 1.0427216e-07   -797.04672            0   -797.04672    14413.315 
     872  1.10165e-07   -797.04672            0   -797.04672    14413.313 
     873 1.1610703e-07   -797.04672            0   -797.04672    14413.312 
     874 1.2213043e-07   -797.04672            0   -797.04672     14413.31 
     875 1.2842879e-07   -797.04672            0   -797.04672    14413.309 
     876 1.3723238e-07   -797.04672            0   -797.04672    14413.305 
     877 1.3691974e-07   -797.04672            0   -797.04672    14413.308 
     878 2.6431519e-08   -797.04672            0   -797.04672    14413.305 
     879 1.0487084e-08   -797.04672            0   -797.04672    14413.304 
     880 1.1006974e-08   -797.04672            0   -797.04672    14413.304 
     881 1.2964733e-08   -797.04672            0   -797.04672    14413.303 
     882 1.5071842e-08   -797.04672            0   -797.04672    14413.303 
     883 1.7323339e-08   -797.04672            0   -797.04672    14413.302 
     884 1.9714928e-08   -797.04672            0   -797.04672    14413.301 
     885 2.2242179e-08   -797.04672            0   -797.04672    14413.301 
     886 2.4900314e-08   -797.04672            0   -797.04672      14413.3 
     887 2.7684301e-08   -797.04672            0   -797.04672    14413.299 
     888 3.0588802e-08   -797.04672            0   -797.04672    14413.298 
     889 3.3608221e-08   -797.04672            0   -797.04672    14413.297 
     890 3.6736669e-08   -797.04672            0   -797.04672    14413.296 
     891 3.9968019e-08   -797.04672            0   -797.04672    14413.295 
     892 4.329585e-08   -797.04672            0   -797.04672    14413.294 
     893 4.6713537e-08   -797.04672            0   -797.04672    14413.293 
     894 5.0214135e-08   -797.04672            0   -797.04672    14413.292 
     895 5.3790592e-08   -797.04672            0   -797.04672    14413.291 
     896 5.7435388e-08   -797.04672            0   -797.04672     14413.29 
     897 6.1141267e-08   -797.04672            0   -797.04672    14413.289 
     898 6.489978e-08   -797.04672            0   -797.04672    14413.287 
     899 6.8704789e-08   -797.04672            0   -797.04672    14413.286 
     900 7.2545992e-08   -797.04672            0   -797.04672    14413.285 
     901 7.6439139e-08   -797.04672            0   -797.04672    14413.283 
     902 8.0464895e-08   -797.04672            0   -797.04672    14413.282 
     903 8.5753315e-08   -797.04673            0   -797.04673     14413.28 
     904 1.0044568e-07   -797.04673            0   -797.04673     14413.28 
     905 1.1538985e-07   -797.04673            0   -797.04673    14413.275 
     906 1.3670854e-08   -797.04673            0   -797.04673    14413.276 
     907 7.2800134e-09   -797.04673            0   -797.04673    14413.277 
     908 5.0653412e-09   -797.04673            0   -797.04673    14413.277 
     909 5.9827502e-09   -797.04673            0   -797.04673    14413.277 
     910 7.1620973e-09   -797.04673            0   -797.04673    14413.276 
     911 8.4411367e-09   -797.04673            0   -797.04673    14413.276 
     912 9.8168725e-09   -797.04673            0   -797.04673    14413.275 
     913 1.1286645e-08   -797.04673            0   -797.04673    14413.275 
     914 1.2847611e-08   -797.04673            0   -797.04673    14413.274 
     915 1.4496726e-08   -797.04673            0   -797.04673    14413.273 
     916 1.6230747e-08   -797.04673            0   -797.04673    14413.273 
     917 1.8046239e-08   -797.04673            0   -797.04673    14413.272 
     918 1.993958e-08   -797.04673            0   -797.04673    14413.271 
     919 2.1906963e-08   -797.04673            0   -797.04673    14413.271 
     920 2.3944405e-08   -797.04673            0   -797.04673     14413.27 
     921 2.6047746e-08   -797.04673            0   -797.04673    14413.269 
     922 2.8212662e-08   -797.04673            0   -797.04673    14413.268 
     923 3.0434661e-08   -797.04673            0   -797.04673    14413.267 
     924 3.2709107e-08   -797.04673            0   -797.04673    14413.266 
     925 3.5031198e-08   -797.04673            0   -797.04673    14413.265 
     926 3.7396015e-08   -797.04673            0   -797.04673    14413.264 
     927 3.9798463e-08   -797.04673            0   -797.04673    14413.263 
     928 4.2233412e-08   -797.04673            0   -797.04673    14413.262 
     929 4.4695401e-08   -797.04673            0   -797.04673    14413.261 
     930 4.7179432e-08   -797.04673            0   -797.04673     14413.26 
     931 4.9679132e-08   -797.04673            0   -797.04673    14413.259 
     932 5.2193888e-08   -797.04673            0   -797.04673    14413.257 
     933 5.4727519e-08   -797.04673            0   -797.04673    14413.256 
     934 5.7503253e-08   -797.04673            0   -797.04673    14413.255 
     935 6.257288e-08   -797.04673            0   -797.04673    14413.254 
     936 8.0284716e-08   -797.04673            0   -797.04673     14413.25 
     937 2.1641795e-08   -797.04673            0   -797.04673    14413.252 
     938 4.2703909e-09   -797.04673            0   -797.04673    14413.252 
     939 4.8155471e-09   -797.04673            0   -797.04673    14413.251 
     940 5.6476967e-09   -797.04673            0   -797.04673    14413.251 
     941 6.5449194e-09   -797.04673            0   -797.04673    14413.251 
     942 7.5015294e-09   -797.04673            0   -797.04673     14413.25 
     943 8.5156922e-09   -797.04673            0   -797.04673     14413.25 
     944 9.5852115e-09   -797.04673            0   -797.04673    14413.249 
     945   1.0708e-08   -797.04673            0   -797.04673    14413.249 
     946 1.1881688e-08   -797.04673            0   -797.04673    14413.248 
     947 1.3103931e-08   -797.04673            0   -797.04673    14413.247 
     948 1.4372123e-08   -797.04673            0   -797.04673    14413.247 
     949 1.568372e-08   -797.04673            0   -797.04673    14413.246 
     950 1.7035842e-08   -797.04673            0   -797.04673    14413.245 
     951 1.8425844e-08   -797.04673            0   -797.04673    14413.245 
     952 1.9850442e-08   -797.04673            0   -797.04673    14413.244 
     953 2.1307224e-08   -797.04673            0   -797.04673    14413.243 
     954 2.2791934e-08   -797.04674            0   -797.04674    14413.242 
     955 2.4304272e-08   -797.04674            0   -797.04674    14413.241 
     956 2.5837954e-08   -797.04674            0   -797.04674    14413.241 
     957 2.7420847e-08   -797.04674            0   -797.04674    14413.239 
     958 2.9141713e-08   -797.04674            0   -797.04674    14413.239 
     959 3.1667285e-08   -797.04674            0   -797.04674    14413.237 
     960 2.9195611e-08   -797.04674            0   -797.04674    14413.238 
     961 6.3571729e-09   -797.04674            0   -797.04674    14413.237 
     962 2.6573573e-09   -797.04674            0   -797.04674    14413.237 
     963 3.0656619e-09   -797.04674            0   -797.04674    14413.236 
     964 3.6356841e-09   -797.04674            0   -797.04674    14413.236 
     965  4.25079e-09   -797.04674            0   -797.04674    14413.236 
     966 4.9095487e-09   -797.04674            0   -797.04674    14413.235 
     967 5.6105825e-09   -797.04674            0   -797.04674    14413.235 
     968 6.3524825e-09   -797.04674            0   -797.04674    14413.234 
     969 7.1337226e-09   -797.04674            0   -797.04674    14413.234 
     970 7.9527049e-09   -797.04674            0   -797.04674    14413.233 
     971 8.8077317e-09   -797.04674            0   -797.04674    14413.233 
     972 9.6970355e-09   -797.04674            0   -797.04674    14413.232 
     973 1.0618754e-08   -797.04674            0   -797.04674    14413.232 
     974 1.1570968e-08   -797.04674            0   -797.04674    14413.231 
     975 1.2551657e-08   -797.04674            0   -797.04674    14413.231 
     976 1.3558776e-08   -797.04674            0   -797.04674     14413.23 
     977 1.4590141e-08   -797.04674            0   -797.04674    14413.229 
     978 1.5643637e-08   -797.04674            0   -797.04674    14413.229 
     979 1.6716825e-08   -797.04674            0   -797.04674    14413.228 
     980 1.7807683e-08   -797.04674            0   -797.04674    14413.227 
     981 1.891252e-08   -797.04674            0   -797.04674    14413.226 
     982 2.0027729e-08   -797.04674            0   -797.04674    14413.225 
     983 2.1121122e-08   -797.04674            0   -797.04674    14413.225 
     984 2.2006853e-08   -797.04674            0   -797.04674    14413.224 
     985 2.0998991e-08   -797.04674            0   -797.04674    14413.223 
     986 1.0563274e-08   -797.04674            0   -797.04674    14413.222 
     987 1.2714563e-09   -797.04674            0   -797.04674    14413.222 
     988  1.31309e-09   -797.04674            0   -797.04674    14413.222 
     989 1.5456262e-09   -797.04674            0   -797.04674    14413.222 
     990 1.8867408e-09   -797.04674            0   -797.04674    14413.222 
     991 2.2628083e-09   -797.04674            0   -797.04674    14413.221 
     992 2.6706828e-09   -797.04674            0   -797.04674    14413.221 
     993 3.1095541e-09   -797.04674            0   -797.04674    14413.221 
     994 3.578539e-09   -797.04674            0   -797.04674    14413.221 
     995  4.07669e-09   -797.04674            0   -797.04674     14413.22 
     996 4.6029951e-09   -797.04674            0   -797.04674     14413.22 
     997 5.1563808e-09   -797.04674            0   -797.04674    14413.219 
     998 5.7357135e-09   -797.04674            0   -797.04674    14413.219 
     999 6.3398022e-09   -797.04674            0   -797.04674    14413.218 
    1000 6.9674008e-09   -797.04674            0   -797.04674    14413.218 
    1001 7.6172106e-09   -797.04674            0   -797.04674    14413.218 
    1002 8.2878832e-09   -797.04674            0   -797.04674    14413.217 
    1003 8.9780231e-09   -797.04674            0   -797.04674    14413.216 
    1004 9.6861911e-09   -797.04674            0   -797.04674    14413.216 
    1005 1.0410907e-08   -797.04674            0   -797.04674    14413.215 
    1006 1.1150653e-08   -797.04674            0   -797.04674    14413.215 
    1007 1.1903879e-08   -797.04674            0   -797.04674    14413.214 
    1008 1.2668997e-08   -797.04674            0   -797.04674    14413.213 
    1009 1.3444421e-08   -797.04674            0   -797.04674    14413.213 
    1010 1.4228457e-08   -797.04674            0   -797.04674    14413.212 
    1011  1.50197e-08   -797.04674            0   -797.04674    14413.211 
    1012 1.5816277e-08   -797.04674            0   -797.04674     14413.21 
    1013 1.6622477e-08   -797.04674            0   -797.04674     14413.21 
    1014 1.7474356e-08   -797.04674            0   -797.04674    14413.209 
    1015 1.8912953e-08   -797.04674            0   -797.04674    14413.208 
    1016 2.6462763e-08   -797.04674            0   -797.04674    14413.208 
    1017 3.8867411e-08   -797.04675            0   -797.04675    14413.205 
    1018 1.2545204e-09   -797.04675            0   -797.04675    14413.206 
    1019 1.4046309e-09   -797.04675            0   -797.04675    14413.206 
    1020 1.0975615e-09   -797.04675            0   -797.04675    14413.206 
[...]
    1984 1.8788346e-05   -797.06521            0   -797.06521    14365.127 
    1985 3.995632e-06   -797.06521            0   -797.06521    14365.118 
    1986 4.7202055e-06   -797.06522            0   -797.06522    14365.103 
    1987 5.6321987e-06   -797.06522            0   -797.06522    14365.086 
    1988 6.6222468e-06   -797.06523            0   -797.06523    14365.069 
    1989 7.6882302e-06   -797.06523            0   -797.06523    14365.049 
    1990 8.828584e-06   -797.06524            0   -797.06524    14365.028 
    1991 1.0041927e-05   -797.06525            0   -797.06525    14365.006 
    1992 1.1326634e-05   -797.06526            0   -797.06526    14364.982 
    1993 1.2681107e-05   -797.06527            0   -797.06527    14364.957 
    1994 1.4103523e-05   -797.06528            0   -797.06527     14364.93 
    1995 1.5592119e-05   -797.06528            0   -797.06528    14364.902 
    1996 1.7144826e-05    -797.0653            0   -797.06529    14364.872 
    1997 1.8759823e-05   -797.06531            0   -797.06531    14364.841 
    1998 2.043464e-05   -797.06532            0   -797.06532    14364.808 
    1999 2.2167892e-05   -797.06533            0   -797.06533    14364.774 
    2000 2.3956321e-05   -797.06534            0   -797.06534    14364.738 
    2001 2.5804685e-05   -797.06535            0   -797.06535    14364.703 
    2002 2.7727278e-05   -797.06537            0   -797.06537    14364.661 
    2003 2.9947504e-05   -797.06538            0   -797.06538    14364.632 
    2004 3.4079896e-05    -797.0654            0   -797.06539    14364.562 
    2005 4.9094077e-05   -797.06541            0   -797.06541    14364.603 
    2006 3.3899372e-05   -797.06541            0   -797.06541    14364.506 
    2007 4.7188292e-06   -797.06542            0   -797.06542    14364.521 
    2008 2.5146266e-06   -797.06542            0   -797.06542    14364.513 
    2009 3.0399388e-06   -797.06542            0   -797.06542    14364.501 
    2010 3.6447065e-06   -797.06543            0   -797.06543    14364.488 
    2011 4.3017965e-06   -797.06543            0   -797.06543    14364.473 
    2012 5.0103021e-06   -797.06544            0   -797.06544    14364.458 
    2013 5.7692308e-06   -797.06544            0   -797.06544    14364.441 
    2014 6.5775595e-06   -797.06545            0   -797.06545    14364.423 
    2015 7.4341683e-06   -797.06546            0   -797.06546    14364.404 
    2016 8.3378846e-06   -797.06546            0   -797.06546    14364.383 
    2017 9.2874478e-06   -797.06547            0   -797.06547    14364.361 
    2018 1.0281549e-05   -797.06548            0   -797.06548    14364.338 
    2019 1.1318785e-05   -797.06549            0   -797.06549    14364.314 
    2020 1.239773e-05    -797.0655            0    -797.0655    14364.289 
    2021 1.3516826e-05   -797.06551            0   -797.06551    14364.262 
    2022 1.4674577e-05   -797.06552            0   -797.06552    14364.235 
    2023 1.5869195e-05   -797.06553            0   -797.06553    14364.206 
    2024 1.7099406e-05   -797.06554            0   -797.06554    14364.176 
    2025 1.8362932e-05   -797.06555            0   -797.06555    14364.145 
    2026 1.9663017e-05   -797.06556            0   -797.06556    14364.113 
    2027 2.1014585e-05   -797.06557            0   -797.06557    14364.077 
    2028 2.2657807e-05   -797.06558            0   -797.06558    14364.052 
    2029 2.6794292e-05   -797.06559            0   -797.06559    14363.987 
    2030 4.8275231e-05    -797.0656            0    -797.0656    14364.042 
    2031 2.5956772e-05   -797.06561            0   -797.06561    14363.959 
    2032 2.2191003e-06   -797.06561            0   -797.06561    14363.962 
    2033 1.9217065e-06   -797.06561            0   -797.06561    14363.952 
    2034  2.30369e-06   -797.06562            0   -797.06562    14363.942 
    2035 2.7202947e-06   -797.06562            0   -797.06562     14363.93 
    2036 3.1695768e-06   -797.06563            0   -797.06563    14363.918 
    2037 3.6507469e-06   -797.06563            0   -797.06563    14363.905 
    2038 4.1631396e-06   -797.06563            0   -797.06563     14363.89 
    2039 4.7059701e-06   -797.06564            0   -797.06564    14363.875 
    2040 5.278461e-06   -797.06565            0   -797.06565    14363.858 
    2041 5.8797354e-06   -797.06565            0   -797.06565    14363.841 
    2042 6.5089282e-06   -797.06566            0   -797.06566    14363.823 
    2043 7.1650544e-06   -797.06566            0   -797.06566    14363.804 
    2044 7.8471954e-06   -797.06567            0   -797.06567    14363.784 
    2045 8.5542128e-06   -797.06568            0   -797.06568    14363.763 
    2046 9.2852652e-06   -797.06569            0   -797.06569    14363.741 
    2047 1.003889e-05   -797.06569            0   -797.06569    14363.718 
    2048 1.0815392e-05    -797.0657            0    -797.0657    14363.694 
    2049 1.1614469e-05   -797.06571            0   -797.06571    14363.668 
    2050 1.2465017e-05   -797.06572            0   -797.06572    14363.646 
    2051 1.3550862e-05   -797.06573            0   -797.06573     14363.61 
    2052 1.6702786e-05   -797.06574            0   -797.06574    14363.611 
    2053 3.1387797e-05   -797.06575            0   -797.06575    14363.518 
    2054 1.8679552e-05   -797.06575            0   -797.06575    14363.572 
    2055 1.7223745e-06   -797.06575            0   -797.06575    14363.552 
    2056 1.2404724e-06   -797.06575            0   -797.06575    14363.545 
    2057 1.4867776e-06   -797.06576            0   -797.06576    14363.537 
    2058 1.7559177e-06   -797.06576            0   -797.06576    14363.528 
    2059 2.046019e-06   -797.06576            0   -797.06576    14363.518 
    2060 2.3566596e-06   -797.06577            0   -797.06577    14363.507 
    2061 2.6873229e-06   -797.06577            0   -797.06577    14363.495 
    2062 3.0375114e-06   -797.06578            0   -797.06578    14363.483 
    2063 3.4066569e-06   -797.06578            0   -797.06578     14363.47 
    2064 3.7941938e-06   -797.06578            0   -797.06578    14363.456 
    2065 4.1994863e-06   -797.06579            0   -797.06579    14363.442 
    2066 4.6219171e-06    -797.0658            0    -797.0658    14363.426 
    2067 5.060768e-06    -797.0658            0    -797.0658     14363.41 
    2068 5.5154086e-06   -797.06581            0   -797.06581    14363.393 
    2069 5.9849791e-06   -797.06581            0   -797.06581    14363.376 
    2070 6.4690345e-06   -797.06582            0   -797.06582    14363.357 
    2071 6.9664184e-06   -797.06583            0   -797.06583    14363.338 
    2072 7.479326e-06   -797.06583            0   -797.06583    14363.319 
    2073 8.0147729e-06   -797.06584            0   -797.06584    14363.296 
    2074 8.6790729e-06   -797.06585            0   -797.06585    14363.282 
    2075 1.0308032e-05   -797.06585            0   -797.06585    14363.241 
    2076 1.8459851e-05   -797.06586            0   -797.06586    14363.273 
    2077 1.4959077e-05   -797.06586            0   -797.06586     14363.21 
    2078 1.5904698e-06   -797.06587            0   -797.06587    14363.221 
    2079 6.376455e-07   -797.06587            0   -797.06587    14363.219 
    2080 7.4225329e-07   -797.06587            0   -797.06587    14363.213 
    2081 8.9453249e-07   -797.06587            0   -797.06587    14363.206 
    2082 1.0602524e-06   -797.06587            0   -797.06587    14363.199 
    2083 1.239142e-06   -797.06588            0   -797.06588    14363.191 
    2084 1.430908e-06   -797.06588            0   -797.06588    14363.183 
    2085 1.6352334e-06   -797.06588            0   -797.06588    14363.174 
    2086 1.851779e-06   -797.06589            0   -797.06589    14363.165 
    2087 2.0801832e-06   -797.06589            0   -797.06589    14363.154 
    2088 2.3200628e-06   -797.06589            0   -797.06589    14363.144 
    2089 2.5710134e-06    -797.0659            0    -797.0659    14363.132 
    2090  2.83261e-06    -797.0659            0    -797.0659     14363.12 
    2091 3.1044075e-06   -797.06591            0   -797.06591    14363.108 
    2092 3.3859419e-06   -797.06591            0   -797.06591    14363.095 
    2093 3.6767295e-06   -797.06592            0   -797.06592    14363.081 
    2094 3.9762699e-06   -797.06592            0   -797.06592    14363.066 
    2095 4.284043e-06   -797.06593            0   -797.06593    14363.052 
    2096 4.5995169e-06   -797.06593            0   -797.06593    14363.036 
    2097 4.9221316e-06   -797.06594            0   -797.06594     14363.02 
    2098 5.2513448e-06   -797.06594            0   -797.06594    14363.003 
    2099 5.586507e-06   -797.06595            0   -797.06595    14362.986 
    2100 5.9272697e-06   -797.06595            0   -797.06595    14362.969 
    2101 6.2725973e-06   -797.06596            0   -797.06596     14362.95 
    2102 6.6289633e-06   -797.06597            0   -797.06597    14362.933 
    2103 7.0535868e-06   -797.06597            0   -797.06597    14362.907 
    2104 8.3552085e-06   -797.06598            0   -797.06598    14362.914 
    2105 4.4184739e-06   -797.06598            0   -797.06598    14362.879 
    2106 2.6339005e-07   -797.06598            0   -797.06598    14362.883 
    2107 2.2566408e-07   -797.06598            0   -797.06598    14362.883 
    2108 2.4163263e-07   -797.06598            0   -797.06598    14362.881 
    2109 2.9949458e-07   -797.06599            0   -797.06599    14362.878 
    2110 3.6985001e-07   -797.06599            0   -797.06599    14362.874 
    2111 4.4754359e-07   -797.06599            0   -797.06599    14362.869 
    2112 5.3223085e-07   -797.06599            0   -797.06599    14362.864 
    2113 6.2376076e-07   -797.06599            0   -797.06599    14362.859 
    2114 7.2197121e-07   -797.06599            0   -797.06599    14362.853 
    2115 8.2668664e-07     -797.066            0     -797.066    14362.847 
    2116 9.3771886e-07     -797.066            0     -797.066     14362.84 
    2117 1.054867e-06     -797.066            0     -797.066    14362.833 
    2118 1.1779182e-06     -797.066            0     -797.066    14362.825 
    2119 1.3066471e-06   -797.06601            0   -797.06601    14362.817 
    2120 1.4408174e-06   -797.06601            0   -797.06601    14362.808 
    2121 1.5801808e-06   -797.06601            0   -797.06601    14362.799 
    2122 1.7244785e-06   -797.06602            0   -797.06602     14362.79 
    2123 1.8734404e-06   -797.06602            0   -797.06602     14362.78 
    2124 2.026787e-06   -797.06602            0   -797.06602     14362.77 
    2125 2.1842271e-06   -797.06603            0   -797.06603     14362.76 
    2126 2.3454637e-06   -797.06603            0   -797.06603    14362.749 
    2127 2.5101814e-06   -797.06603            0   -797.06603    14362.737 
    2128 2.6780796e-06   -797.06604            0   -797.06604    14362.725 
    2129 2.8487851e-06   -797.06604            0   -797.06604    14362.713 
    2130 3.0221394e-06   -797.06605            0   -797.06605    14362.701 
    2131 3.1976107e-06   -797.06605            0   -797.06605    14362.688 
    2132 3.3806119e-06   -797.06606            0   -797.06606    14362.676 
    2133 3.6228869e-06   -797.06606            0   -797.06606    14362.657 
    2134 4.6706606e-06   -797.06607            0   -797.06607    14362.663 
    2135 3.7212806e-06   -797.06607            0   -797.06607    14362.631 
    2136 9.9444149e-08   -797.06607            0   -797.06607    14362.634 
    2137 1.1288391e-07   -797.06607            0   -797.06607    14362.637 
    2138 1.040751e-07   -797.06607            0   -797.06607    14362.638 
    2139 1.037939e-07   -797.06607            0   -797.06607    14362.637 
    2140 1.2519414e-07   -797.06607            0   -797.06607    14362.635 
    2141 1.5690721e-07   -797.06607            0   -797.06607    14362.633 
    2142 1.9304421e-07   -797.06607            0   -797.06607     14362.63 
    2143 2.327689e-07   -797.06607            0   -797.06607    14362.627 
    2144 2.7597659e-07   -797.06607            0   -797.06607    14362.623 
    2145 3.2258434e-07   -797.06608            0   -797.06608    14362.619 
    2146 3.7250234e-07   -797.06608            0   -797.06608    14362.615 
    2147 4.256336e-07   -797.06608            0   -797.06608    14362.611 
    2148 4.8187418e-07   -797.06608            0   -797.06608    14362.606 
    2149 5.4111331e-07   -797.06608            0   -797.06608    14362.601 
    2150 6.0323353e-07   -797.06608            0   -797.06608    14362.595 
    2151 6.6811081e-07   -797.06609            0   -797.06609    14362.589 
    2152 7.3561479e-07   -797.06609            0   -797.06609    14362.583 
    2153 8.056088e-07   -797.06609            0   -797.06609    14362.577 
    2154 8.779502e-07   -797.06609            0   -797.06609     14362.57 
    2155 9.5249031e-07   -797.06609            0   -797.06609    14362.563 
    2156 1.0290749e-06    -797.0661            0    -797.0661    14362.556 
    2157 1.1075437e-06    -797.0661            0    -797.0661    14362.549 
    2158 1.1877318e-06    -797.0661            0    -797.0661    14362.541 
    2159 1.2694671e-06   -797.06611            0   -797.06611    14362.533 
    2160 1.3525774e-06   -797.06611            0   -797.06611    14362.525 
    2161 1.4368705e-06   -797.06611            0   -797.06611    14362.516 
    2162 1.5221973e-06   -797.06611            0   -797.06611    14362.507 
    2163 1.6082768e-06   -797.06612            0   -797.06612    14362.498 
    2164 1.6956768e-06   -797.06612            0   -797.06612    14362.489 
    2165 1.7879766e-06   -797.06612            0   -797.06612    14362.478 
    2166 1.9770905e-06   -797.06613            0   -797.06613    14362.475 
    2167 2.9943788e-06   -797.06613            0   -797.06613    14362.446 
    2168 3.5399674e-07   -797.06613            0   -797.06613    14362.454 
    2169 2.2484761e-07   -797.06613            0   -797.06613    14362.458 
    2170 8.6726575e-08   -797.06613            0   -797.06613    14362.457 
    2171 9.6774587e-08   -797.06613            0   -797.06613    14362.455 
    2172 1.1611207e-07   -797.06613            0   -797.06613    14362.453 
    2173 1.3708225e-07   -797.06613            0   -797.06613    14362.451 
    2174 1.5964219e-07   -797.06614            0   -797.06614    14362.448 
    2175 1.8374378e-07   -797.06614            0   -797.06614    14362.445 
    2176 2.0933563e-07   -797.06614            0   -797.06614    14362.442 
    2177 2.3636253e-07   -797.06614            0   -797.06614    14362.438 
    2178 2.647658e-07   -797.06614            0   -797.06614    14362.435 
    2179 2.9448314e-07   -797.06614            0   -797.06614    14362.431 
    2180 3.2544892e-07   -797.06614            0   -797.06614    14362.427 
    2181 3.5759398e-07   -797.06614            0   -797.06614    14362.423 
    2182 3.9084602e-07   -797.06615            0   -797.06615    14362.419 
    2183 4.2512919e-07   -797.06615            0   -797.06615    14362.414 
    2184 4.6036495e-07   -797.06615            0   -797.06615    14362.409 
    2185 4.9647062e-07   -797.06615            0   -797.06615    14362.404 
    2186 5.3336243e-07   -797.06615            0   -797.06615    14362.399 
    2187 5.7094897e-07   -797.06615            0   -797.06615    14362.394 
    2188 6.0914719e-07   -797.06616            0   -797.06616    14362.388 
    2189 6.4784306e-07   -797.06616            0   -797.06616    14362.383 
    2190 6.8702162e-07   -797.06616            0   -797.06616    14362.377 
    2191 7.2659058e-07   -797.06616            0   -797.06616     14362.37 
    2192 7.6952417e-07   -797.06616            0   -797.06616    14362.365 
    2193 8.450279e-07   -797.06617            0   -797.06617    14362.355 
    2194 1.306983e-06   -797.06617            0   -797.06617    14362.361 
    2195 1.1441076e-06   -797.06617            0   -797.06617    14362.344 
    2196 5.2322381e-08   -797.06617            0   -797.06617    14362.346 
    2197 3.7665668e-08   -797.06617            0   -797.06617    14362.348 
    2198 2.8860559e-08   -797.06617            0   -797.06617    14362.347 
    2199 3.248144e-08   -797.06617            0   -797.06617    14362.347 
    2200 4.0113155e-08   -797.06617            0   -797.06617    14362.345 
    2201 4.8823305e-08   -797.06617            0   -797.06617    14362.344 
    2202 5.8337254e-08   -797.06617            0   -797.06617    14362.342 
    2203 6.8627461e-08   -797.06617            0   -797.06617     14362.34 
    2204 7.9670106e-08   -797.06617            0   -797.06617    14362.339 
    2205 9.1439269e-08   -797.06617            0   -797.06617    14362.336 
    2206 1.0390707e-07   -797.06618            0   -797.06618    14362.334 
    2207 1.1704364e-07   -797.06618            0   -797.06618    14362.332 
    2208 1.3081719e-07   -797.06618            0   -797.06618    14362.329 
    2209 1.4519402e-07   -797.06618            0   -797.06618    14362.327 
    2210 1.6013854e-07   -797.06618            0   -797.06618    14362.324 
    2211 1.7561328e-07   -797.06618            0   -797.06618    14362.321 
    2212 1.9157895e-07   -797.06618            0   -797.06618    14362.318 
    2213 2.0799439e-07   -797.06618            0   -797.06618    14362.315 
    2214 2.2481666e-07   -797.06618            0   -797.06618    14362.312 
    2215 2.4200092e-07   -797.06618            0   -797.06618    14362.308 
    2216 2.5950066e-07   -797.06619            0   -797.06619    14362.305 
    2217 2.7726716e-07   -797.06619            0   -797.06619    14362.301 
    2218 2.9525069e-07   -797.06619            0   -797.06619    14362.297 
    2219 3.1339724e-07   -797.06619            0   -797.06619    14362.293 
    2220 3.3165772e-07   -797.06619            0   -797.06619    14362.289 
    2221 3.4996191e-07   -797.06619            0   -797.06619    14362.285 
    2222 3.6832946e-07   -797.06619            0   -797.06619    14362.281 
    2223 3.868478e-07    -797.0662            0    -797.0662    14362.276 
    2224 4.1138163e-07    -797.0662            0    -797.0662    14362.273 
    2225 5.202937e-07    -797.0662            0    -797.0662    14362.263 
    2226 9.687721e-07    -797.0662            0    -797.0662    14362.274 
    2227 7.8658316e-10    -797.0662            0    -797.0662    14362.274 
Loop time of 427.117 on 24 procs for 727 steps with 127 atoms

98.5% CPU use with 24 MPI tasks x no OpenMP threads

Minimization stats:
  Stopping criterion = energy tolerance
  Energy initial, next-to-last, final = 
         -797.04676917     -797.066199378     -797.066199378
  Force two-norm initial, final = 2.98513e-06 0.000222225
  Force max component initial, final = 9.16016e-07 5.42881e-05
  Final line search alpha, max atom move = 0 0
  Iterations, force evaluations = 727 727

MPI task timing breakdown:
Section |  min time  |  avg time  |  max time  |%varavg| %total
---------------------------------------------------------------
Pair    | 170.94     | 310.05     | 425.88     | 414.8 | 72.59
Neigh   | 0          | 0          | 0          |   0.0 |  0.00
Comm    | 0.043971   | 115.87     | 254.99     | 678.5 | 27.13
Output  | 0.12319    | 0.12367    | 0.1243     |   0.1 |  0.03
Modify  | 0.17856    | 0.17917    | 0.1797     |   0.1 |  0.04
Other   |            | 0.8891     |            |       |  0.21

Nlocal:    5.29167 ave 7 max 3 min
Histogram: 4 0 0 0 0 8 0 9 0 3
Nghost:    757.375 ave 796 max 714 min
Histogram: 8 0 0 0 0 6 2 0 0 8
Neighs:    0 ave 0 max 0 min
Histogram: 24 0 0 0 0 0 0 0 0 0
FullNghs:  1069 ave 1405 max 613 min
Histogram: 4 0 0 0 4 4 0 9 0 3

Total # of neighbors = 25656
Ave neighs/atom = 202.016
Neighbor list builds = 0
Dangerous builds = 0
Total wall time: 0:22:05
