LAMMPS (12 Dec 2018)
Processor partition = 3
Reading data file ...
  orthogonal box = (0 0 0) to (10.0025 12.3537 10.615)
  2 by 4 by 3 MPI processor grid
  reading atoms ...
  127 atoms
Reading potential file lammps-force.nnp with DATE: 20201105
Reading potential file lammps_rot.nnp with DATE: 20211226
Neighbor list info ...
  update every 1 steps, delay 0 steps, check yes
  max neighbors/atom: 2000, page size: 100000
  master list distance cutoff = 8
  ghost atom cutoff = 8
  binsize = 4, bins = 3 4 3
  2 neighbor lists, perpetual/occasional/extra = 2 0 0
  (1) pair nnp3v, perpetual
      attributes: full, newton on
      pair build: full/bin/atomonly
      stencil: full/bin/3d
      bin: standard
  (2) pair nnp3v_vf, perpetual, copy from (1)
      attributes: full, newton on
      pair build: copy
      stencil: none
      bin: none
Setting up quickmin style minimization ...
  Unit style    : metal
  Current step  : 0
Per MPI rank memory allocation (min/avg/max) = 3.111 | 3.226 | 3.362 Mbytes
Step Temp E_pair E_mol TotEng Press 
       0            0   -796.79482            0   -796.79482    13324.103 
      24   0.66844098   -796.99042            0   -796.97954    13893.519 
Loop time of 14.6785 on 24 procs for 24 steps with 127 atoms

98.2% CPU use with 24 MPI tasks x no OpenMP threads

Minimization stats:
  Stopping criterion = energy tolerance
  Energy initial, next-to-last, final = 
        -796.794816724     -796.990398619     -796.990424995
  Force two-norm initial, final = 1.98977 0.177561
  Force max component initial, final = 0.330078 0.036579
  Final line search alpha, max atom move = 0 0
  Iterations, force evaluations = 24 24

MPI task timing breakdown:
Section |  min time  |  avg time  |  max time  |%varavg| %total
---------------------------------------------------------------
Pair    | 6.034      | 10.746     | 14.67      |  77.7 | 73.21
Neigh   | 0          | 0          | 0          |   0.0 |  0.00
Comm    | 0.0019774  | 3.9267     | 8.6433     | 128.6 | 26.75
Output  | 0          | 0          | 0          |   0.0 |  0.00
Modify  | 0          | 0          | 0          |   0.0 |  0.00
Other   |            | 0.005899   |            |       |  0.04

Nlocal:    5.29167 ave 7 max 3 min
Histogram: 4 0 0 0 0 9 0 7 0 4
Nghost:    759.125 ave 797 max 714 min
Histogram: 7 1 0 0 0 2 6 0 0 8
Neighs:    0 ave 0 max 0 min
Histogram: 24 0 0 0 0 0 0 0 0 0
FullNghs:  1068 ave 1413 max 614 min
Histogram: 4 0 0 0 5 4 0 7 0 4

Total # of neighbors = 25632
Ave neighs/atom = 201.827
Neighbor list builds = 0
Dangerous builds = 0
Setting up quickmin style minimization ...
  Unit style    : metal
  Current step  : 0
Per MPI rank memory allocation (min/avg/max) = 5.112 | 5.237 | 5.362 Mbytes
Step Temp E_pair E_mol TotEng Press 
       0            0   -793.53664            0   -793.53664    20510.382 
       1    12.603799   -793.53664            0   -793.33136     20677.54 
       2    51.455626   -793.91307            0   -793.07502     20821.81 
       3    107.16595   -794.51655            0   -792.77116    20867.268 
       4    154.44311   -795.10531            0   -792.58993    20698.308 
       5    177.46562   -795.54376            0   -792.65342    20101.111 
       6    180.15451   -795.83759            0   -792.90346    18931.267 
       7    151.73222   -796.03062            0   -793.55939     17262.34 
       8    140.27081   -796.16303            0   -793.87847    16124.376 
       9    135.66036   -796.25932            0   -794.04985    15596.082 
      10    128.88263    -796.3318            0   -794.23272    15165.918 
      11      88.5537   -796.37446            0    -794.9322    14601.003 
      12   0.65528693   -796.37782            0   -796.36715    13414.719 
      13   0.91830533   -796.38179            0   -796.36683    13395.057 
      14    1.2619515   -796.38646            0    -796.3659    13375.749 
      15     1.729131     -796.392            0   -796.36384    13360.331 
      16     2.214187   -796.39823            0   -796.36217    13349.758 
      17    2.6919648   -796.40494            0    -796.3611    13342.021 
      18    3.1959498   -796.41209            0   -796.36004    13335.833 
      19    3.7280897   -796.41961            0   -796.35889    13330.805 
      20    4.2851198   -796.42744            0   -796.35765     13326.92 
      21    4.8622478    -796.4355            0   -796.35631    13324.196 
      22    5.4548473   -796.44375            0   -796.35491    13322.657 
      23     6.058189   -796.45212            0   -796.35346    13322.359 
      24    6.6673785   -796.46055            0   -796.35196    13323.348 
      25    7.2773314   -796.46896            0   -796.35044    13325.594 
      26    7.8827981   -796.47733            0   -796.34895    13329.114 
      27    8.4783656   -796.48557            0   -796.34749    13333.799 
      28    9.0586194   -796.49368            0   -796.34615    13339.558 
      29    9.6179794   -796.50159            0   -796.34495    13346.237 
      30    10.151308   -796.50928            0   -796.34395    13353.704 
      31    10.654398   -796.51671            0   -796.34319    13361.815 
      32     11.12318   -796.52387            0   -796.34271    13370.354 
      33    11.553185   -796.53073            0   -796.34256    13379.208 
      34    11.944859   -796.53736            0   -796.34281     13387.94 
      35    12.288226   -796.54364            0    -796.3435    13397.267 
      36    12.612052   -796.54945            0   -796.34404    13403.183 
      37    12.775471    -796.5548            0   -796.34673    13422.194 
      38    11.646342   -796.55692            0   -796.36724     13368.11 
      39 0.0058411859   -796.55692            0   -796.55683    13213.727 
      40  0.025474253   -796.55712            0    -796.5567    13215.311 
      41  0.058666767   -796.55749            0   -796.55654    13218.452 
      42   0.10120384     -796.558            0   -796.55635    13223.127 
      43    0.1455643   -796.55856            0   -796.55619    13229.157 
      44    0.1795574   -796.55913            0    -796.5562    13235.968 
      45    0.1884306   -796.55967            0    -796.5566    13242.231 
      46   0.18072963   -796.56021            0   -796.55727    13246.446 
      47   0.19530317   -796.56078            0    -796.5576    13248.854 
      48   0.23185097    -796.5614            0   -796.55763    13250.426 
      49   0.27576397   -796.56207            0   -796.55758    13251.711 
      50   0.32320436   -796.56279            0   -796.55753    13252.955 
      51   0.37371307   -796.56356            0   -796.55748    13254.228 
      52   0.42712473   -796.56438            0   -796.55742    13255.547 
      53   0.48324843   -796.56523            0   -796.55736    13256.918 
      54    0.5418797   -796.56613            0    -796.5573     13258.34 
      55   0.60280214   -796.56706            0   -796.55725    13259.806 
      56   0.66579608   -796.56803            0   -796.55719    13261.308 
      57   0.73063812   -796.56903            0   -796.55713     13262.83 
      58   0.79710809   -796.57007            0   -796.55708     13264.36 
      59   0.86497849   -796.57113            0   -796.55704    13265.894 
      60   0.93402636   -796.57222            0   -796.55701    13267.429 
      61    1.0040255   -796.57331            0   -796.55696    13268.959 
      62    1.0747635   -796.57442            0   -796.55691    13270.465 
      63    1.1460279   -796.57552            0   -796.55686    13271.941 
      64    1.2176091   -796.57663            0    -796.5568    13273.376 
      65    1.2893131   -796.57775            0   -796.55675    13274.755 
      66    1.3609443   -796.57887            0    -796.5567    13276.068 
      67    1.4323351   -796.57998            0   -796.55665      13277.3 
      68    1.5032877   -796.58109            0   -796.55661    13278.443 
      69    1.5736951    -796.5822            0   -796.55657    13279.475 
      70    1.6433176   -796.58332            0   -796.55656    13280.385 
      71    1.7123289   -796.58443            0   -796.55654    13281.106 
      72     1.779752   -796.58553            0   -796.55655    13281.852 
      73    1.8472379   -796.58661            0   -796.55653    13281.934 
      74    1.9020036   -796.58769            0   -796.55671    13283.437 
      75    1.8941851   -796.58864            0   -796.55779    13278.028 
      76    1.0991676   -796.58934            0   -796.57144    13278.158 
      77  0.014101775    -796.5894            0   -796.58917     13262.11 
      78  0.020577866   -796.58946            0   -796.58913    13260.287 
      79  0.027552097   -796.58955            0    -796.5891    13258.506 
      80  0.034476608   -796.58965            0   -796.58909    13257.151 
      81  0.041911558   -796.58978            0   -796.58909    13256.409 
      82  0.051034439   -796.58992            0   -796.58909    13256.109 
      83  0.061630609   -796.59009            0   -796.58908    13256.005 
      84  0.073314384   -796.59027            0   -796.58907    13255.954 
      85  0.085953149   -796.59046            0   -796.58906    13255.902 
      86  0.099496901   -796.59067            0   -796.58905    13255.838 
      87   0.11391028    -796.5909            0   -796.58904    13255.758 
      88   0.12915965   -796.59113            0   -796.58903    13255.659 
      89   0.14521007   -796.59138            0   -796.58901    13255.541 
      90   0.16202526   -796.59164            0     -796.589    13255.403 
      91   0.17956732   -796.59191            0   -796.58898    13255.241 
      92   0.19779713   -796.59219            0   -796.58897    13255.055 
      93   0.21667439   -796.59248            0   -796.58895     13254.84 
      94   0.23615787   -796.59277            0   -796.58893    13254.582 
      95   0.25620362   -796.59307            0    -796.5889     13254.29 
      96   0.27677278   -796.59338            0   -796.58888    13253.962 
      97   0.29781873    -796.5937            0   -796.58885    13253.595 
      98   0.31930053   -796.59403            0   -796.58883    13253.188 
      99   0.34117267   -796.59436            0    -796.5888    13252.738 
     100   0.36339214   -796.59469            0   -796.58878    13252.242 
     101   0.38591199   -796.59504            0   -796.58875    13251.697 
     102   0.40869213   -796.59538            0   -796.58873    13251.098 
     103   0.43168263   -796.59573            0    -796.5887    13250.448 
     104   0.45484983   -796.59609            0   -796.58868    13249.737 
     105   0.47813403   -796.59645            0   -796.58866    13248.978 
     106   0.50152664    -796.5968            0   -796.58864    13248.132 
     107     0.524908   -796.59716            0   -796.58862    13247.289 
     108   0.54841388   -796.59753            0    -796.5886      13246.2 
     109   0.57152775   -796.59789            0   -796.58858     13245.56 
     110    0.5954534   -796.59825            0   -796.58855    13243.255 
     111   0.61564513   -796.59858            0   -796.58856    13246.059 
     112   0.62091966   -796.59889            0   -796.58878    13233.165 
     113   0.18993975   -796.59899            0   -796.59589    13237.694 
     114  0.033588068   -796.59907            0   -796.59852    13233.326 
     115  0.033512846   -796.59915            0    -796.5986    13232.856 
     116  0.038807782   -796.59923            0   -796.59859    13232.562 
     117  0.044497076   -796.59931            0   -796.59859    13232.232 
     118  0.050533109   -796.59941            0   -796.59858    13231.872 
     119  0.056905201   -796.59951            0   -796.59858    13231.482 
     120  0.063601728   -796.59961            0   -796.59857    13231.064 
     121  0.070610676   -796.59972            0   -796.59857    13230.615 
     122  0.077919445   -796.59983            0   -796.59856    13230.137 
     123  0.085514958   -796.59995            0   -796.59856    13229.629 
     124  0.093383701   -796.60007            0   -796.59855    13229.091 
     125    0.1015117    -796.6002            0   -796.59854    13228.521 
     126    0.1098846   -796.60033            0   -796.59854     13227.92 
     127    0.1184877   -796.60046            0   -796.59853    13227.287 
     128   0.12730586    -796.6006            0   -796.59853    13226.621 
     129   0.13632405   -796.60074            0   -796.59852    13225.921 
     130   0.14552653   -796.60089            0   -796.59852    13225.188 
     131   0.15489756   -796.60103            0   -796.59851    13224.419 
     132   0.16442108   -796.60119            0   -796.59851    13223.615 
     133   0.17408076   -796.60134            0   -796.59851    13222.774 
     134    0.1838603    -796.6015            0    -796.5985    13221.896 
     135   0.19374442   -796.60166            0    -796.5985     13220.98 
     136   0.20371546   -796.60182            0    -796.5985    13220.027 
     137   0.21376026   -796.60198            0   -796.59849    13219.029 
     138   0.22385734   -796.60213            0   -796.59849    13218.004 
     139   0.23400455    -796.6023            0   -796.59848    13216.909 
     140   0.24414228   -796.60246            0   -796.59848    13215.861 
     141   0.25437177   -796.60262            0   -796.59848    13214.511 
     142   0.26419351   -796.60277            0   -796.59847    13213.952 
     143    0.2737343   -796.60295            0   -796.59849    13210.576 
     144   0.26124334   -796.60302            0   -796.59877    13215.891 
     145  0.076801631   -796.60313            0   -796.60188    13206.331 
     146  0.011236909   -796.60315            0   -796.60297    13206.551 
     147  0.011385618   -796.60318            0   -796.60299    13206.593 
     148   0.01333052   -796.60321            0   -796.60299    13206.362 
     149  0.015520598   -796.60324            0   -796.60299    13206.074 
     150   0.01786369   -796.60328            0   -796.60299     13205.76 
     151  0.020356709   -796.60332            0   -796.60299    13205.422 
     152  0.022995786   -796.60336            0   -796.60299     13205.06 
     153  0.025776746   -796.60341            0   -796.60299    13204.675 
     154  0.028695202   -796.60346            0   -796.60299    13204.266 
     155  0.031746635    -796.6035            0   -796.60299    13203.832 
     156  0.034926155   -796.60356            0   -796.60299    13203.374 
     157  0.038228747   -796.60361            0   -796.60299    13202.893 
     158  0.041649217   -796.60366            0   -796.60298    13202.386 
     159  0.045182185   -796.60372            0   -796.60298    13201.856 
     160  0.048822116   -796.60378            0   -796.60298      13201.3 
     161  0.052563359   -796.60384            0   -796.60298     13200.72 
     162  0.056400017    -796.6039            0   -796.60298    13200.115 
     163  0.060326142   -796.60396            0   -796.60298    13199.486 
     164  0.064335657   -796.60403            0   -796.60298    13198.831 
     165   0.06842238    -796.6041            0   -796.60298    13198.151 
     166  0.072580048   -796.60416            0   -796.60298    13197.446 
     167  0.076802235   -796.60423            0   -796.60298    13196.716 
     168  0.081082719    -796.6043            0   -796.60298    13195.961 
     169  0.085414927   -796.60437            0   -796.60298     13195.18 
     170  0.089792312   -796.60444            0   -796.60298    13194.375 
     171   0.09420804   -796.60451            0   -796.60298    13193.544 
     172  0.098655998   -796.60459            0   -796.60298    13192.686 
     173   0.10312813   -796.60466            0   -796.60298    13191.807 
     174   0.10761938   -796.60473            0   -796.60298    13190.895 
     175   0.11209677    -796.6048            0   -796.60297    13189.984 
     176   0.11640946   -796.60487            0   -796.60297    13188.965 
     177   0.11845376   -796.60494            0   -796.60301    13188.171 
     178  0.097301877   -796.60499            0   -796.60341    13186.329 
     179  0.014346099   -796.60502            0   -796.60479    13185.577 
     180 0.0033736145   -796.60503            0   -796.60498    13185.128 
     181 0.0043306947   -796.60504            0   -796.60497    13184.904 
     182 0.0051864531   -796.60506            0   -796.60497      13184.7 
     183 0.0061049196   -796.60507            0   -796.60497    13184.486 
     184  0.007094015   -796.60509            0   -796.60497    13184.255 
     185 0.0081520702    -796.6051            0   -796.60497    13184.005 
     186 0.0092775105   -796.60512            0   -796.60497    13183.738 
     187  0.010468702   -796.60514            0   -796.60497    13183.453 
     188  0.011723913   -796.60516            0   -796.60497    13183.149 
     189  0.013041318   -796.60518            0   -796.60497    13182.827 
     190     0.014419    -796.6052            0   -796.60497    13182.488 
     191   0.01585495   -796.60522            0   -796.60496     13182.13 
     192  0.017347071   -796.60525            0   -796.60496    13181.754 
     193  0.018893191   -796.60527            0   -796.60496     13181.36 
     194  0.020491057    -796.6053            0   -796.60496    13180.949 
     195  0.022138347   -796.60532            0   -796.60496    13180.519 
     196  0.023832668   -796.60535            0   -796.60496    13180.071 
     197  0.025571553   -796.60538            0   -796.60496    13179.606 
     198  0.027352482   -796.60541            0   -796.60496    13179.123 
     199  0.029172876   -796.60543            0   -796.60496    13178.622 
     200  0.031030104   -796.60546            0   -796.60496    13178.104 
     201  0.032921487   -796.60549            0   -796.60496    13177.568 
     202  0.034844302   -796.60553            0   -796.60496    13177.014 
     203  0.036795787   -796.60556            0   -796.60496    13176.443 
     204  0.038773149   -796.60559            0   -796.60496    13175.855 
     205  0.040773556   -796.60562            0   -796.60496    13175.248 
     206  0.042794096   -796.60565            0   -796.60496    13174.623 
     207  0.044831984   -796.60569            0   -796.60496    13173.982 
     208  0.046884172   -796.60572            0   -796.60496    13173.324 
     209  0.048947849   -796.60576            0   -796.60496    13172.648 
     210  0.051017103   -796.60579            0   -796.60496    13171.956 
     211  0.053069143   -796.60583            0   -796.60496    13171.248 
     212  0.054850235   -796.60586            0   -796.60497     13170.52 
     213  0.053516102   -796.60589            0   -796.60502    13169.757 
     214   0.02817395   -796.60592            0   -796.60546    13168.898 
     215 0.0007106067   -796.60592            0   -796.60591    13168.451 
     216 0.0013440092   -796.60592            0    -796.6059    13168.346 
     217 0.0019335747   -796.60593            0    -796.6059     13168.22 
     218  0.002347191   -796.60594            0    -796.6059    13168.078 
     219 0.0027672903   -796.60594            0    -796.6059    13167.922 
     220 0.0032193029   -796.60595            0    -796.6059    13167.753 
     221 0.0037032388   -796.60596            0    -796.6059     13167.57 
     222 0.0042184222   -796.60597            0    -796.6059    13167.374 
     223 0.0047641424   -796.60598            0    -796.6059    13167.165 
     224 0.0053396488   -796.60599            0    -796.6059    13166.943 
     225 0.0059441485     -796.606            0    -796.6059    13166.708 
     226  0.006576807   -796.60601            0    -796.6059    13166.459 
     227 0.0072367513   -796.60602            0    -796.6059    13166.198 
     228 0.0079230692   -796.60603            0    -796.6059    13165.924 
     229 0.0086348161   -796.60604            0    -796.6059    13165.637 
     230 0.0093710019   -796.60605            0    -796.6059    13165.337 
     231  0.010130607   -796.60606            0    -796.6059    13165.024 
     232  0.010912581   -796.60608            0    -796.6059    13164.698 
     233  0.011715841   -796.60609            0    -796.6059     13164.36 
     234  0.012539276    -796.6061            0    -796.6059    13164.009 
     235  0.013381747   -796.60612            0    -796.6059    13163.646 
     236  0.014242088   -796.60613            0    -796.6059     13163.27 
     237  0.015119117   -796.60615            0    -796.6059    13162.881 
     238  0.016011622   -796.60616            0    -796.6059    13162.481 
     239  0.016918371   -796.60618            0    -796.6059    13162.068 
     240  0.017838119   -796.60619            0    -796.6059    13161.643 
     241    0.0187696   -796.60621            0    -796.6059    13161.206 
     242  0.019711548   -796.60622            0    -796.6059    13160.757 
     243   0.02066267   -796.60624            0    -796.6059    13160.297 
     244  0.021621652   -796.60626            0    -796.6059    13159.824 
     245  0.022587129   -796.60627            0    -796.6059     13159.34 
     246  0.023557309   -796.60629            0    -796.6059    13158.844 
     247   0.02452618    -796.6063            0    -796.6059    13158.337 
     248  0.025441835   -796.60632            0   -796.60591    13157.818 
     249  0.025713392   -796.60634            0   -796.60592    13157.288 
     250  0.019510692   -796.60635            0   -796.60603    13156.738 
     251 0.0018650524   -796.60635            0   -796.60632    13156.368 
     252 0.0012867964   -796.60636            0   -796.60634    13156.245 
     253 0.0015036804   -796.60636            0   -796.60634    13156.124 
     254 0.0017341084   -796.60636            0   -796.60634    13155.993 
     255 0.0019797739   -796.60637            0   -796.60634    13155.853 
     256 0.0022403485   -796.60637            0   -796.60634    13155.702 
     257 0.0025154871   -796.60638            0   -796.60634    13155.542 
     258 0.0028048239   -796.60638            0   -796.60634    13155.373 
     259 0.0031079728   -796.60639            0   -796.60634    13155.194 
     260 0.0034245289   -796.60639            0   -796.60634    13155.006 
     261 0.0037540687    -796.6064            0   -796.60634    13154.808 
     262 0.0040961509    -796.6064            0   -796.60634    13154.601 
     263 0.0044503171   -796.60641            0   -796.60634    13154.385 
     264 0.0048160921   -796.60642            0   -796.60634    13154.159 
     265 0.0051929851   -796.60642            0   -796.60634    13153.924 
     266 0.0055804899   -796.60643            0   -796.60634     13153.68 
     267 0.0059780862   -796.60644            0   -796.60634    13153.427 
     268 0.0063852398   -796.60644            0   -796.60634    13153.165 
     269 0.0068014039   -796.60645            0   -796.60634    13152.894 
     270 0.0072260198   -796.60646            0   -796.60634    13152.615 
     271 0.0076585187   -796.60647            0   -796.60634    13152.326 
     272 0.0080983231   -796.60647            0   -796.60634    13152.029 
     273 0.0085448455   -796.60648            0   -796.60634    13151.722 
     274 0.0089974854   -796.60649            0   -796.60634    13151.408 
     275 0.0094556295    -796.6065            0   -796.60634    13151.084 
     276 0.0099186646   -796.60651            0   -796.60634    13150.753 
     277  0.010385969   -796.60651            0   -796.60634    13150.413 
     278  0.010856883   -796.60652            0   -796.60634    13150.064 
     279  0.011330518   -796.60653            0   -796.60635    13149.708 
     280  0.011803669   -796.60654            0   -796.60635    13149.343 
     281  0.012249142   -796.60655            0   -796.60635     13148.97 
     282  0.012366817   -796.60655            0   -796.60635    13148.593 
     283 0.0093275979   -796.60656            0   -796.60641    13148.217 
     284 0.00093460507   -796.60656            0   -796.60655    13148.009 
     285 0.00064636931   -796.60657            0   -796.60655    13147.922 
     286 0.00075491989   -796.60657            0   -796.60655    13147.833 
     287 0.00087045235   -796.60657            0   -796.60655    13147.737 
     288 0.00099362759   -796.60657            0   -796.60655    13147.635 
     289 0.0011242848   -796.60657            0   -796.60656    13147.525 
     290 0.0012622545   -796.60658            0   -796.60656    13147.408 
     291  0.001407357   -796.60658            0   -796.60656    13147.285 
     292 0.0015594031   -796.60658            0   -796.60656    13147.155 
     293 0.0017181941   -796.60658            0   -796.60656    13147.017 
     294  0.001883522   -796.60659            0   -796.60656    13146.873 
     295   0.00205517   -796.60659            0   -796.60656    13146.722 
     296 0.0022329127   -796.60659            0   -796.60656    13146.565 
     297 0.0024165164    -796.6066            0   -796.60656    13146.401 
     298 0.0026057395    -796.6066            0   -796.60656     13146.23 
     299 0.0028003319    -796.6066            0   -796.60656    13146.052 
     300  0.003000036   -796.60661            0   -796.60656    13145.868 
     301 0.0032045899   -796.60661            0   -796.60656    13145.677 
     302 0.0034137234   -796.60661            0   -796.60656     13145.48 
     303 0.0036271605   -796.60662            0   -796.60656    13145.276 
     304 0.0038446192   -796.60662            0   -796.60656    13145.066 
     305 0.0040658124   -796.60662            0   -796.60656     13144.85 
     306 0.0042904474   -796.60663            0   -796.60656    13144.627 
     307 0.0045182256   -796.60663            0   -796.60656    13144.399 
     308 0.0047488457   -796.60664            0   -796.60656    13144.164 
     309 0.0049820053   -796.60664            0   -796.60656    13143.923 
     310 0.0052173932   -796.60664            0   -796.60656    13143.676 
     311 0.0054546846   -796.60665            0   -796.60656    13143.422 
     312 0.0056934427   -796.60665            0   -796.60656    13143.164 
     313 0.0059322586   -796.60666            0   -796.60656    13142.898 
     314 0.0061593777   -796.60666            0   -796.60656    13142.628 
     315 0.0062474834   -796.60667            0   -796.60656    13142.352 
     316 0.0049552683   -796.60667            0   -796.60659    13142.092 
     317 0.00064488685   -796.60667            0   -796.60666    13141.946 
     318 0.0002242375   -796.60667            0   -796.60667    13141.892 
     319 0.00028152864   -796.60667            0   -796.60667    13141.838 
     320 0.00033243203   -796.60667            0   -796.60667    13141.778 
     321 0.00038702136   -796.60667            0   -796.60667    13141.712 
     322 0.00044550482   -796.60667            0   -796.60667    13141.642 
     323 0.00050780819   -796.60668            0   -796.60667    13141.567 
     324 0.00057385195   -796.60668            0   -796.60667    13141.487 
     325 0.00064355148   -796.60668            0   -796.60667    13141.401 
     326 0.00071681725   -796.60668            0   -796.60667    13141.311 
     327 0.00079355489   -796.60668            0   -796.60667    13141.216 
     328 0.00087366535   -796.60668            0   -796.60667    13141.115 
     329 0.00095704502   -796.60668            0   -796.60667     13141.01 
     330 0.0010435859   -796.60669            0   -796.60667      13140.9 
     331 0.0011331757   -796.60669            0   -796.60667    13140.785 
     332 0.0012256979   -796.60669            0   -796.60667    13140.665 
     333 0.0013210322   -796.60669            0   -796.60667    13140.541 
     334 0.0014190543   -796.60669            0   -796.60667    13140.411 
     335 0.0015196363   -796.60669            0   -796.60667    13140.277 
     336  0.001622647    -796.6067            0   -796.60667    13140.138 
     337 0.0017279519    -796.6067            0   -796.60667    13139.994 
     338  0.001835413    -796.6067            0   -796.60667    13139.846 
     339 0.0019448899    -796.6067            0   -796.60667    13139.693 
     340 0.0020562391    -796.6067            0   -796.60667    13139.536 
     341 0.0021693147   -796.60671            0   -796.60667    13139.374 
     342 0.0022839684   -796.60671            0   -796.60667    13139.208 
     343 0.0024000497   -796.60671            0   -796.60667    13139.037 
     344 0.0025174061   -796.60671            0   -796.60667    13138.862 
     345 0.0026358833   -796.60671            0   -796.60667    13138.682 
     346 0.0027553254   -796.60672            0   -796.60667    13138.498 
     347 0.0028755724   -796.60672            0   -796.60667     13138.31 
     348 0.0029964439   -796.60672            0   -796.60667    13138.118 
     349 0.0031175484   -796.60672            0   -796.60667    13137.921 
     350  0.003236253   -796.60672            0   -796.60667    13137.721 
     351 0.0033229114   -796.60673            0   -796.60667    13137.516 
     352 0.0030310673   -796.60673            0   -796.60668    13137.318 
     353 0.00086204289   -796.60673            0   -796.60672    13137.183 
     354 1.4235267e-05   -796.60673            0   -796.60673    13137.161 
     355 2.5004597e-05   -796.60673            0   -796.60673    13137.147 
     356 4.1124212e-05   -796.60673            0   -796.60673    13137.127 
     357 6.0102944e-05   -796.60673            0   -796.60673    13137.103 
     358 7.8920779e-05   -796.60673            0   -796.60673    13137.074 
     359 9.815575e-05   -796.60673            0   -796.60673    13137.041 
     360 0.00011892487   -796.60673            0   -796.60673    13137.005 
     361 0.00014155017   -796.60673            0   -796.60673    13136.965 
     362 0.00016605037   -796.60673            0   -796.60673    13136.921 
     363 0.00019239761   -796.60673            0   -796.60673    13136.874 
     364 0.00022055881   -796.60673            0   -796.60673    13136.824 
     365 0.00025049838   -796.60673            0   -796.60673     13136.77 
     366 0.00028217835   -796.60673            0   -796.60673    13136.712 
     367 0.00031555841   -796.60673            0   -796.60673    13136.651 
     368 0.00035059597   -796.60674            0   -796.60673    13136.586 
     369 0.00038724619   -796.60674            0   -796.60673    13136.518 
     370 0.00042546207   -796.60674            0   -796.60673    13136.446 
     371 0.00046519451   -796.60674            0   -796.60673    13136.371 
     372 0.00050639234   -796.60674            0   -796.60673    13136.293 
     373 0.00054900256   -796.60674            0   -796.60673    13136.211 
     374 0.00059297007   -796.60674            0   -796.60673    13136.126 
     375 0.00063823791   -796.60674            0   -796.60673    13136.037 
     376 0.00068474742   -796.60674            0   -796.60673    13135.945 
     377 0.00073243826   -796.60674            0   -796.60673     13135.85 
     378 0.00078124844   -796.60674            0   -796.60673    13135.751 
     379 0.00083111449   -796.60674            0   -796.60673    13135.649 
     380 0.00088197145   -796.60675            0   -796.60673    13135.544 
     381 0.00093375301   -796.60675            0   -796.60673    13135.436 
     382  0.000986392   -796.60675            0   -796.60673    13135.325 
     383 0.0010398196   -796.60675            0   -796.60673     13135.21 
     384 0.0010939655   -796.60675            0   -796.60673    13135.092 
     385 0.0011487589   -796.60675            0   -796.60673    13134.972 
     386 0.0012041278   -796.60675            0   -796.60673    13134.848 
     387 0.0012599996   -796.60675            0   -796.60673    13134.721 
     388 0.0013163008   -796.60675            0   -796.60673    13134.591 
     389  0.001372956   -796.60676            0   -796.60673    13134.458 
     390 0.0014298863   -796.60676            0   -796.60673    13134.322 
     391 0.0014869532   -796.60676            0   -796.60673    13134.184 
     392 0.0015434567   -796.60676            0   -796.60673    13134.042 
     393 0.0015915652   -796.60676            0   -796.60673    13133.899 
     394  0.001534593   -796.60676            0   -796.60674    13133.754 
     395 0.00069346411   -796.60676            0   -796.60675    13133.653 
     396 8.4729727e-06   -796.60676            0   -796.60676    13133.634 
     397 1.5356163e-05   -796.60676            0   -796.60676    13133.621 
     398 2.598824e-05   -796.60676            0   -796.60676    13133.603 
     399 3.7149685e-05   -796.60676            0   -796.60676    13133.583 
     400 4.6912083e-05   -796.60676            0   -796.60676    13133.559 
     401 5.6770823e-05   -796.60676            0   -796.60676    13133.534 
     402 6.7414279e-05   -796.60676            0   -796.60676    13133.506 
     403 7.8922204e-05   -796.60676            0   -796.60676    13133.475 
     404 9.1285405e-05   -796.60676            0   -796.60676    13133.442 
     405 0.00010448851   -796.60676            0   -796.60676    13133.406 
     406 0.00011851489   -796.60676            0   -796.60676    13133.368 
     407 0.00013334681   -796.60676            0   -796.60676    13133.328 
     408 0.00014896544   -796.60676            0   -796.60676    13133.285 
     409 0.0001653509   -796.60676            0   -796.60676    13133.239 
     410 0.00018248227   -796.60677            0   -796.60676    13133.192 
     411 0.00020033762   -796.60677            0   -796.60676    13133.142 
     412 0.00021889407   -796.60677            0   -796.60676    13133.089 
     413 0.00023812775   -796.60677            0   -796.60676    13133.034 
     414 0.00025801389   -796.60677            0   -796.60676    13132.977 
     415 0.00027852683   -796.60677            0   -796.60676    13132.917 
     416 0.00029964005   -796.60677            0   -796.60676    13132.855 
     417 0.00032132624   -796.60677            0   -796.60676    13132.791 
     418 0.0003435572   -796.60677            0   -796.60676    13132.724 
     419 0.0003663041   -796.60677            0   -796.60676    13132.655 
     420 0.00038953734   -796.60677            0   -796.60676    13132.584 
     421 0.0004132267   -796.60677            0   -796.60676    13132.511 
     422 0.00043734119   -796.60677            0   -796.60676    13132.435 
     423 0.00046184942   -796.60677            0   -796.60676    13132.357 
     424 0.00048671908   -796.60677            0   -796.60676    13132.277 
     425 0.00051191801   -796.60677            0   -796.60676    13132.195 
     426 0.00053741223   -796.60677            0   -796.60676    13132.111 
     427 0.00056317009   -796.60677            0   -796.60676    13132.025 
     428 0.0005891534   -796.60677            0   -796.60676    13131.936 
     429 0.00061533814   -796.60678            0   -796.60677    13131.846 
     430 0.00064166369   -796.60678            0   -796.60677    13131.753 
     431 0.00066816808   -796.60678            0   -796.60677    13131.659 
     432 0.00069463738   -796.60678            0   -796.60677    13131.559 
     433 0.0007219221   -796.60678            0   -796.60677    13131.474 
     434 0.00075167689   -796.60678            0   -796.60677    13131.324 
     435 0.00083988202   -796.60678            0   -796.60677    13131.411 
     436 0.0013894282   -796.60678            0   -796.60676    13130.727 
     437 0.00041216177   -796.60678            0   -796.60677    13131.097 
     438 5.4597709e-05   -796.60678            0   -796.60678    13131.134 
     439 4.8071098e-05   -796.60678            0   -796.60678      13131.1 
     440 5.4498898e-05   -796.60678            0   -796.60678    13131.076 
     441 6.1449232e-05   -796.60678            0   -796.60678    13131.048 
     442 6.8785307e-05   -796.60678            0   -796.60678    13131.018 
     443 7.6489765e-05   -796.60678            0   -796.60678    13130.987 
     444 8.4552989e-05   -796.60678            0   -796.60678    13130.954 
     445 9.2964415e-05   -796.60678            0   -796.60678    13130.919 
     446 0.0001017133   -796.60678            0   -796.60678    13130.882 
     447 0.00011078838   -796.60678            0   -796.60678    13130.844 
     448 0.00012017795   -796.60678            0   -796.60678    13130.805 
     449 0.00012986991   -796.60678            0   -796.60678    13130.763 
     450 0.00013985167   -796.60678            0   -796.60678     13130.72 
     451 0.00015011039   -796.60678            0   -796.60678    13130.675 
     452 0.00016063258   -796.60678            0   -796.60678    13130.629 
     453 0.00017140482   -796.60678            0   -796.60678    13130.581 
     454 0.00018241265   -796.60678            0   -796.60678    13130.532 
     455 0.00019364251   -796.60678            0   -796.60678     13130.48 
     456 0.00020507847   -796.60678            0   -796.60678    13130.428 
     457 0.00021670934   -796.60679            0   -796.60678    13130.373 
     458 0.00022851849   -796.60679            0   -796.60678     13130.32 
     459 0.0002405306   -796.60679            0   -796.60678    13130.256 
     460 0.00025286161   -796.60679            0   -796.60678    13130.214 
     461 0.00026667854   -796.60679            0   -796.60678    13130.112 
     462 0.00028955168   -796.60679            0   -796.60678    13130.161 
     463 0.00036489938   -796.60679            0   -796.60678    13129.831 
     464 0.00039109651   -796.60679            0   -796.60678    13130.212 
     465 6.8195312e-05   -796.60679            0   -796.60679    13130.023 
     466 2.2351306e-05   -796.60679            0   -796.60679    13129.961 
     467 2.175254e-05   -796.60679            0   -796.60679    13129.941 
     468 2.5200541e-05   -796.60679            0   -796.60679    13129.923 
     469 2.8905721e-05   -796.60679            0   -796.60679    13129.904 
     470 3.284603e-05   -796.60679            0   -796.60679    13129.884 
     471 3.7016518e-05   -796.60679            0   -796.60679    13129.862 
     472 4.1411877e-05   -796.60679            0   -796.60679    13129.838 
     473 4.6026507e-05   -796.60679            0   -796.60679    13129.814 
     474 5.0854508e-05   -796.60679            0   -796.60679    13129.788 
     475 5.5889691e-05   -796.60679            0   -796.60679    13129.761 
     476 6.1125585e-05   -796.60679            0   -796.60679    13129.732 
     477 6.6555446e-05   -796.60679            0   -796.60679    13129.702 
     478 7.2172264e-05   -796.60679            0   -796.60679    13129.671 
     479 7.7968772e-05   -796.60679            0   -796.60679    13129.638 
     480 8.3937456e-05   -796.60679            0   -796.60679    13129.605 
     481 9.0070562e-05   -796.60679            0   -796.60679     13129.57 
     482 9.6360108e-05   -796.60679            0   -796.60679    13129.534 
     483 0.00010279789   -796.60679            0   -796.60679    13129.496 
     484 0.0001093755   -796.60679            0   -796.60679    13129.457 
     485 0.00011608434   -796.60679            0   -796.60679    13129.417 
     486 0.0001229156   -796.60679            0   -796.60679    13129.376 
     487 0.00012986032   -796.60679            0   -796.60679    13129.334 
     488 0.00013690935   -796.60679            0   -796.60679     13129.29 
     489 0.00014405339   -796.60679            0   -796.60679    13129.246 
     490 0.00015128296   -796.60679            0   -796.60679      13129.2 
     491 0.0001585886   -796.60679            0   -796.60679    13129.153 
     492 0.00016596028   -796.60679            0   -796.60679    13129.105 
     493 0.00017338896   -796.60679            0   -796.60679    13129.055 
     494 0.00018086155   -796.60679            0   -796.60679    13129.006 
     495 0.00018836703   -796.60679            0   -796.60679     13128.95 
     496 0.00019578402   -796.60679            0   -796.60679    13128.913 
     497 0.00020198848    -796.6068            0   -796.60679    13128.808 
     498 0.00018553881   -796.60679            0   -796.60679     13128.91 
     499 3.0032655e-05    -796.6068            0   -796.60679    13128.807 
     500 1.2907615e-05    -796.6068            0    -796.6068    13128.778 
     501 1.4066309e-05    -796.6068            0    -796.6068    13128.766 
     502 1.6051204e-05    -796.6068            0    -796.6068    13128.751 
     503 1.816253e-05    -796.6068            0    -796.6068    13128.736 
     504 2.0392602e-05    -796.6068            0    -796.6068    13128.719 
     505 2.2738342e-05    -796.6068            0    -796.6068    13128.702 
     506 2.5196759e-05    -796.6068            0    -796.6068    13128.684 
     507 2.7764688e-05    -796.6068            0    -796.6068    13128.664 
     508 3.0438833e-05    -796.6068            0    -796.6068    13128.644 
     509 3.3215742e-05    -796.6068            0    -796.6068    13128.622 
     510 3.6091831e-05    -796.6068            0    -796.6068      13128.6 
     511 3.9063372e-05    -796.6068            0    -796.6068    13128.577 
     512 4.212651e-05    -796.6068            0    -796.6068    13128.553 
     513 4.527726e-05    -796.6068            0    -796.6068    13128.528 
     514 4.851152e-05    -796.6068            0    -796.6068    13128.502 
     515 5.182506e-05    -796.6068            0    -796.6068    13128.475 
     516 5.5213552e-05    -796.6068            0    -796.6068    13128.447 
     517 5.8672542e-05    -796.6068            0    -796.6068    13128.419 
     518 6.2197491e-05    -796.6068            0    -796.6068    13128.389 
     519 6.5783692e-05    -796.6068            0    -796.6068    13128.359 
     520 6.942625e-05    -796.6068            0    -796.6068    13128.327 
     521 7.3119204e-05    -796.6068            0    -796.6068    13128.295 
     522 7.6851506e-05    -796.6068            0    -796.6068    13128.261 
     523  8.05778e-05    -796.6068            0    -796.6068     13128.23 
     524 8.4008571e-05    -796.6068            0    -796.6068    13128.189 
     525 8.498799e-05    -796.6068            0    -796.6068     13128.17 
     526 6.946824e-05    -796.6068            0    -796.6068    13128.102 
     527 1.8992338e-05    -796.6068            0    -796.6068    13128.127 
     528 5.6695548e-06    -796.6068            0    -796.6068    13128.106 
     529 6.3532016e-06    -796.6068            0    -796.6068    13128.096 
     530 7.392287e-06    -796.6068            0    -796.6068    13128.086 
     531 8.5123494e-06    -796.6068            0    -796.6068    13128.075 
     532  9.70583e-06    -796.6068            0    -796.6068    13128.064 
     533 1.0971215e-05    -796.6068            0    -796.6068    13128.052 
     534 1.2306894e-05    -796.6068            0    -796.6068    13128.039 
     535 1.3711164e-05    -796.6068            0    -796.6068    13128.025 
     536 1.5182225e-05    -796.6068            0    -796.6068    13128.011 
     537 1.671819e-05    -796.6068            0    -796.6068    13127.996 
     538 1.8317081e-05    -796.6068            0    -796.6068     13127.98 
     539 1.9976835e-05    -796.6068            0    -796.6068    13127.963 
     540 2.1695305e-05    -796.6068            0    -796.6068    13127.946 
     541 2.3470264e-05    -796.6068            0    -796.6068    13127.928 
     542 2.5299406e-05    -796.6068            0    -796.6068    13127.909 
     543 2.7180351e-05    -796.6068            0    -796.6068    13127.889 
     544 2.9110644e-05    -796.6068            0    -796.6068    13127.869 
     545 3.1087764e-05    -796.6068            0    -796.6068    13127.848 
     546 3.3109121e-05    -796.6068            0    -796.6068    13127.826 
     547 3.5172066e-05    -796.6068            0    -796.6068    13127.804 
     548 3.7273886e-05    -796.6068            0    -796.6068    13127.781 
     549 3.9411813e-05    -796.6068            0    -796.6068    13127.757 
     550 4.1583028e-05    -796.6068            0    -796.6068    13127.733 
     551 4.378466e-05    -796.6068            0    -796.6068    13127.708 
     552 4.6013794e-05    -796.6068            0    -796.6068    13127.682 
     553 4.8267468e-05    -796.6068            0    -796.6068    13127.656 
     554 5.054268e-05    -796.6068            0    -796.6068    13127.629 
     555 5.2836317e-05    -796.6068            0    -796.6068    13127.601 
     556 5.5144733e-05    -796.6068            0    -796.6068    13127.573 
     557 5.7458822e-05    -796.6068            0    -796.6068    13127.544 
     558 5.971291e-05    -796.6068            0    -796.6068    13127.515 
     559 6.117934e-05    -796.6068            0    -796.6068    13127.485 
     560 5.3891182e-05    -796.6068            0    -796.6068    13127.457 
     561 1.2390093e-05    -796.6068            0    -796.6068    13127.444 
     562 5.2683619e-07    -796.6068            0    -796.6068    13127.441 
     563 8.8634809e-07    -796.6068            0    -796.6068    13127.438 
     564 1.3037913e-06   -796.60681            0    -796.6068    13127.434 
     565 1.7011575e-06   -796.60681            0   -796.60681    13127.429 
     566 2.103774e-06   -796.60681            0   -796.60681    13127.424 
     567 2.5393218e-06   -796.60681            0   -796.60681    13127.418 
     568 3.0135149e-06   -796.60681            0   -796.60681    13127.412 
     569 3.5263246e-06   -796.60681            0   -796.60681    13127.405 
     570 4.0771253e-06   -796.60681            0   -796.60681    13127.398 
     571 4.6652241e-06   -796.60681            0   -796.60681     13127.39 
     572 5.2898778e-06   -796.60681            0   -796.60681    13127.381 
     573 5.9502943e-06   -796.60681            0   -796.60681    13127.372 
     574 6.6456328e-06   -796.60681            0   -796.60681    13127.363 
     575 7.3750057e-06   -796.60681            0   -796.60681    13127.352 
     576 8.1374792e-06   -796.60681            0   -796.60681    13127.342 
     577 8.9320745e-06   -796.60681            0   -796.60681    13127.331 
     578 9.7577692e-06   -796.60681            0   -796.60681    13127.319 
     579 1.0613499e-05   -796.60681            0   -796.60681    13127.307 
     580 1.1498156e-05   -796.60681            0   -796.60681    13127.294 
     581 1.2410598e-05   -796.60681            0   -796.60681    13127.281 
     582 1.3349638e-05   -796.60681            0   -796.60681    13127.267 
     583 1.4314057e-05   -796.60681            0   -796.60681    13127.253 
     584  1.53026e-05   -796.60681            0   -796.60681    13127.238 
     585 1.6313976e-05   -796.60681            0   -796.60681    13127.223 
     586 1.7346865e-05   -796.60681            0   -796.60681    13127.207 
     587 1.8399915e-05   -796.60681            0   -796.60681    13127.191 
     588 1.9471747e-05   -796.60681            0   -796.60681    13127.174 
     589 2.0560955e-05   -796.60681            0   -796.60681    13127.157 
     590 2.1666106e-05   -796.60681            0   -796.60681    13127.139 
     591 2.2785743e-05   -796.60681            0   -796.60681    13127.121 
     592 2.3918392e-05   -796.60681            0   -796.60681    13127.103 
     593 2.5062553e-05   -796.60681            0   -796.60681    13127.083 
     594 2.6216717e-05   -796.60681            0   -796.60681    13127.064 
     595 2.7379347e-05   -796.60681            0   -796.60681    13127.044 
     596 2.8548918e-05   -796.60681            0   -796.60681    13127.024 
     597 2.9723825e-05   -796.60681            0   -796.60681    13127.003 
     598 3.0902634e-05   -796.60681            0   -796.60681    13126.982 
     599 3.2083132e-05   -796.60681            0   -796.60681     13126.96 
     600 3.3262747e-05   -796.60681            0   -796.60681    13126.939 
     601 3.4398392e-05   -796.60681            0   -796.60681    13126.914 
     602 3.4934308e-05   -796.60681            0   -796.60681    13126.901 
     603 2.7088686e-05   -796.60681            0   -796.60681     13126.85 
     604 1.6568755e-06   -796.60681            0   -796.60681    13126.864 
     605 1.6988657e-06   -796.60681            0   -796.60681    13126.867 
     606 1.7699135e-06   -796.60681            0   -796.60681    13126.862 
     607 2.0344094e-06   -796.60681            0   -796.60681    13126.856 
     608 2.3163725e-06   -796.60681            0   -796.60681    13126.851 
     609 2.6151349e-06   -796.60681            0   -796.60681    13126.845 
     610 2.9303076e-06   -796.60681            0   -796.60681    13126.838 
     611 3.2614948e-06   -796.60681            0   -796.60681    13126.832 
     612 3.6082755e-06   -796.60681            0   -796.60681    13126.825 
     613 3.9702099e-06   -796.60681            0   -796.60681    13126.817 
     614 4.3468369e-06   -796.60681            0   -796.60681     13126.81 
     615 4.7376762e-06   -796.60681            0   -796.60681    13126.801 
     616 5.1422283e-06   -796.60681            0   -796.60681    13126.793 
     617 5.5599757e-06   -796.60681            0   -796.60681    13126.784 
     618 5.9903825e-06   -796.60681            0   -796.60681    13126.775 
     619 6.4328966e-06   -796.60681            0   -796.60681    13126.765 
     620 6.8869487e-06   -796.60681            0   -796.60681    13126.755 
     621 7.3519556e-06   -796.60681            0   -796.60681    13126.745 
     622 7.8273165e-06   -796.60681            0   -796.60681    13126.735 
     623 8.3124215e-06   -796.60681            0   -796.60681    13126.724 
     624 8.806639e-06   -796.60681            0   -796.60681    13126.713 
     625 9.3093397e-06   -796.60681            0   -796.60681    13126.701 
     626 9.819846e-06   -796.60681            0   -796.60681    13126.689 
     627 1.033751e-05   -796.60681            0   -796.60681    13126.677 
     628 1.0861325e-05   -796.60681            0   -796.60681    13126.665 
     629 1.1389403e-05   -796.60681            0   -796.60681    13126.652 
     630 1.1909094e-05   -796.60681            0   -796.60681    13126.639 
     631 1.2330448e-05   -796.60681            0   -796.60681    13126.627 
     632 1.1883637e-05   -796.60681            0   -796.60681    13126.609 
     633 6.6949056e-06   -796.60681            0   -796.60681    13126.609 
     634 5.9763117e-07   -796.60681            0   -796.60681    13126.602 
     635 8.1765517e-07   -796.60681            0   -796.60681    13126.597 
     636 9.505206e-07   -796.60681            0   -796.60681    13126.594 
     637 1.100143e-06   -796.60681            0   -796.60681     13126.59 
     638 1.2599958e-06   -796.60681            0   -796.60681    13126.586 
     639 1.4298818e-06   -796.60681            0   -796.60681    13126.582 
     640 1.6095893e-06   -796.60681            0   -796.60681    13126.577 
     641 1.7988947e-06   -796.60681            0   -796.60681    13126.572 
     642 1.9975618e-06   -796.60681            0   -796.60681    13126.567 
     643 2.2053421e-06   -796.60681            0   -796.60681    13126.561 
     644 2.4219753e-06   -796.60681            0   -796.60681    13126.555 
     645 2.6471893e-06   -796.60681            0   -796.60681    13126.549 
     646 2.8807011e-06   -796.60681            0   -796.60681    13126.543 
     647 3.1222167e-06   -796.60681            0   -796.60681    13126.537 
     648 3.3714317e-06   -796.60681            0   -796.60681     13126.53 
     649 3.6280318e-06   -796.60681            0   -796.60681    13126.523 
     650 3.8916933e-06   -796.60681            0   -796.60681    13126.515 
     651 4.162083e-06   -796.60681            0   -796.60681    13126.508 
     652 4.4388595e-06   -796.60681            0   -796.60681      13126.5 
     653 4.7216731e-06   -796.60681            0   -796.60681    13126.492 
     654 5.0101664e-06   -796.60681            0   -796.60681    13126.483 
     655 5.3039751e-06   -796.60681            0   -796.60681    13126.475 
     656 5.6027277e-06   -796.60681            0   -796.60681    13126.466 
     657 5.9060482e-06   -796.60681            0   -796.60681    13126.457 
     658 6.2135516e-06   -796.60681            0   -796.60681    13126.448 
     659 6.5248553e-06   -796.60681            0   -796.60681    13126.438 
     660 6.8395442e-06   -796.60681            0   -796.60681    13126.428 
     661 7.1572015e-06   -796.60681            0   -796.60681    13126.418 
     662 7.4767509e-06   -796.60681            0   -796.60681    13126.408 
     663 7.792838e-06   -796.60681            0   -796.60681    13126.398 
     664 8.0481484e-06   -796.60681            0   -796.60681    13126.386 
     665 7.6544842e-06   -796.60681            0   -796.60681    13126.379 
     666 3.3746162e-06   -796.60682            0   -796.60681    13126.366 
     667 1.0203579e-07   -796.60682            0   -796.60682    13126.366 
     668 1.7094861e-07   -796.60682            0   -796.60682    13126.366 
     669 2.4654716e-07   -796.60682            0   -796.60682    13126.366 
     670 3.1017417e-07   -796.60682            0   -796.60682    13126.364 
     671 3.7479847e-07   -796.60682            0   -796.60682    13126.362 
     672 4.4495454e-07   -796.60682            0   -796.60682    13126.359 
     673 5.2085752e-07   -796.60682            0   -796.60682    13126.357 
     674 6.0241429e-07   -796.60682            0   -796.60682    13126.354 
     675 6.8952623e-07   -796.60682            0   -796.60682    13126.351 
     676 7.8208844e-07   -796.60682            0   -796.60682    13126.348 
     677 8.7998914e-07   -796.60682            0   -796.60682    13126.345 
     678 9.8310978e-07   -796.60682            0   -796.60682    13126.341 
     679 1.0913253e-06   -796.60682            0   -796.60682    13126.337 
     680 1.2045041e-06   -796.60682            0   -796.60682    13126.333 
     681 1.3225086e-06   -796.60682            0   -796.60682    13126.329 
     682 1.445195e-06   -796.60682            0   -796.60682    13126.325 
     683 1.5724138e-06   -796.60682            0   -796.60682     13126.32 
     684  1.70401e-06   -796.60682            0   -796.60682    13126.315 
     685 1.8398231e-06   -796.60682            0   -796.60682     13126.31 
     686 1.9796875e-06   -796.60682            0   -796.60682    13126.305 
     687 2.123433e-06   -796.60682            0   -796.60682      13126.3 
     688 2.2708845e-06   -796.60682            0   -796.60682    13126.294 
     689 2.4218628e-06   -796.60682            0   -796.60682    13126.289 
     690 2.5761844e-06   -796.60682            0   -796.60682    13126.283 
     691 2.7336623e-06   -796.60682            0   -796.60682    13126.277 
     692 2.894106e-06   -796.60682            0   -796.60682    13126.271 
     693 3.0573219e-06   -796.60682            0   -796.60682    13126.264 
     694 3.2231134e-06   -796.60682            0   -796.60682    13126.258 
     695 3.3912818e-06   -796.60682            0   -796.60682    13126.251 
     696 3.5616258e-06   -796.60682            0   -796.60682    13126.244 
     697 3.7339432e-06   -796.60682            0   -796.60682    13126.237 
     698 3.9080287e-06   -796.60682            0   -796.60682     13126.23 
     699 4.0836808e-06   -796.60682            0   -796.60682    13126.222 
     700 4.2606828e-06   -796.60682            0   -796.60682    13126.215 
     701 4.4388619e-06   -796.60682            0   -796.60682    13126.207 
     702 4.6178667e-06   -796.60682            0   -796.60682    13126.199 
     703 4.7975806e-06   -796.60682            0   -796.60682    13126.192 
     704 4.9716899e-06   -796.60682            0   -796.60682    13126.183 
     705 5.0787109e-06   -796.60682            0   -796.60682    13126.178 
     706 4.2013726e-06   -796.60682            0   -796.60682     13126.16 
     707 4.4822031e-07   -796.60682            0   -796.60682    13126.166 
     708 2.7393566e-07   -796.60682            0   -796.60682    13126.165 
     709 3.1318839e-07   -796.60682            0   -796.60682    13126.163 
     710 3.5781745e-07   -796.60682            0   -796.60682    13126.161 
     711 4.0522323e-07   -796.60682            0   -796.60682    13126.159 
     712 4.5534819e-07   -796.60682            0   -796.60682    13126.157 
     713 5.0812173e-07   -796.60682            0   -796.60682    13126.154 
     714 5.6348802e-07   -796.60682            0   -796.60682    13126.151 
     715 6.2138078e-07   -796.60682            0   -796.60682    13126.149 
     716 6.8173555e-07   -796.60682            0   -796.60682    13126.146 
     717 7.4448161e-07   -796.60682            0   -796.60682    13126.143 
     718 8.0954862e-07   -796.60682            0   -796.60682     13126.14 
     719 8.7686065e-07   -796.60682            0   -796.60682    13126.136 
     720 9.4634271e-07   -796.60682            0   -796.60682    13126.133 
     721 1.0179134e-06   -796.60682            0   -796.60682    13126.129 
     722 1.0914947e-06   -796.60682            0   -796.60682    13126.126 
     723 1.1669982e-06   -796.60682            0   -796.60682    13126.122 
     724 1.2443473e-06   -796.60682            0   -796.60682    13126.118 
     725 1.3234392e-06   -796.60682            0   -796.60682    13126.114 
     726 1.4042126e-06   -796.60682            0   -796.60682     13126.11 
     727 1.4865086e-06   -796.60682            0   -796.60682    13126.106 
     728 1.5703145e-06   -796.60682            0   -796.60682    13126.101 
     729 1.6549525e-06   -796.60682            0   -796.60682    13126.097 
     730 1.7392417e-06   -796.60682            0   -796.60682    13126.093 
     731 1.8086494e-06   -796.60682            0   -796.60682    13126.086 
     732 1.7781384e-06   -796.60682            0   -796.60682    13126.085 
     733 1.1901761e-06   -796.60682            0   -796.60682    13126.075 
     734 2.0863375e-07   -796.60682            0   -796.60682    13126.078 
     735 1.6257841e-07   -796.60682            0   -796.60682    13126.077 
     736 1.8879408e-07   -796.60682            0   -796.60682    13126.075 
     737 2.1703784e-07   -796.60682            0   -796.60682    13126.074 
     738 2.4712526e-07   -796.60682            0   -796.60682    13126.072 
     739 2.7902731e-07   -796.60682            0   -796.60682     13126.07 
     740 3.1270811e-07   -796.60682            0   -796.60682    13126.069 
     741 3.4813165e-07   -796.60682            0   -796.60682    13126.067 
     742 3.8525928e-07   -796.60682            0   -796.60682    13126.065 
     743 4.2405097e-07   -796.60682            0   -796.60682    13126.062 
     744 4.6446465e-07   -796.60682            0   -796.60682     13126.06 
     745 5.0645683e-07   -796.60682            0   -796.60682    13126.058 
     746 5.499822e-07   -796.60682            0   -796.60682    13126.055 
     747 5.949942e-07   -796.60682            0   -796.60682    13126.053 
     748 6.4144456e-07   -796.60682            0   -796.60682     13126.05 
     749 6.8928407e-07   -796.60682            0   -796.60682    13126.047 
     750 7.384617e-07   -796.60682            0   -796.60682    13126.044 
     751 7.8892626e-07   -796.60682            0   -796.60682    13126.041 
     752 8.4062388e-07   -796.60682            0   -796.60682    13126.038 
     753 8.9350276e-07   -796.60682            0   -796.60682    13126.035 
     754 9.4750431e-07   -796.60682            0   -796.60682    13126.032 
     755 1.0025815e-06   -796.60682            0   -796.60682    13126.028 
     756 1.0586573e-06   -796.60682            0   -796.60682    13126.025 
     757 1.1157095e-06   -796.60682            0   -796.60682    13126.021 
     758 1.1734773e-06   -796.60682            0   -796.60682    13126.018 
     759 1.2315635e-06   -796.60682            0   -796.60682    13126.014 
     760 1.2834664e-06   -796.60682            0   -796.60682     13126.01 
     761 1.2826895e-06   -796.60682            0   -796.60682    13126.008 
     762 8.9741304e-07   -796.60682            0   -796.60682        13126 
     763 1.1751764e-07   -796.60682            0   -796.60682    13126.002 
     764 9.9879295e-08   -796.60682            0   -796.60682    13126.002 
     765 1.1565193e-07   -796.60682            0   -796.60682    13126.001 
     766 1.3343005e-07   -796.60682            0   -796.60682        13126 
     767 1.5241008e-07   -796.60682            0   -796.60682    13125.998 
     768 1.7257475e-07   -796.60682            0   -796.60682    13125.997 
     769 1.9390158e-07   -796.60682            0   -796.60682    13125.996 
     770 2.1637007e-07   -796.60682            0   -796.60682    13125.994 
     771 2.3995737e-07   -796.60682            0   -796.60682    13125.993 
     772 2.6464026e-07   -796.60682            0   -796.60682    13125.991 
     773 2.9039404e-07   -796.60682            0   -796.60682    13125.989 
     774 3.1719343e-07   -796.60682            0   -796.60682    13125.988 
     775 3.4501182e-07   -796.60682            0   -796.60682    13125.986 
     776 3.7382219e-07   -796.60682            0   -796.60682    13125.984 
     777 4.0359616e-07   -796.60682            0   -796.60682    13125.982 
     778 4.3430533e-07   -796.60682            0   -796.60682     13125.98 
     779 4.6591954e-07   -796.60682            0   -796.60682    13125.977 
     780 4.984097e-07   -796.60682            0   -796.60682    13125.975 
     781 5.3174319e-07   -796.60682            0   -796.60682    13125.973 
     782 5.6589224e-07   -796.60682            0   -796.60682    13125.971 
     783 6.0081718e-07   -796.60682            0   -796.60682    13125.968 
     784 6.3649759e-07   -796.60682            0   -796.60682    13125.966 
     785 6.7283994e-07   -796.60682            0   -796.60682    13125.963 
     786 7.0973938e-07   -796.60682            0   -796.60682     13125.96 
     787 7.457762e-07   -796.60682            0   -796.60682    13125.957 
     788 7.7252088e-07   -796.60682            0   -796.60682    13125.956 
     789 7.1910889e-07   -796.60682            0   -796.60682    13125.951 
     790 3.358963e-07   -796.60682            0   -796.60682    13125.953 
     791 3.5523785e-08   -796.60682            0   -796.60682    13125.951 
     792 4.6298176e-08   -796.60682            0   -796.60682     13125.95 
     793 5.5201038e-08   -796.60682            0   -796.60682    13125.949 
     794 6.5428037e-08   -796.60682            0   -796.60682    13125.948 
     795 7.6507669e-08   -796.60682            0   -796.60682    13125.947 
     796 8.8417762e-08   -796.60682            0   -796.60682    13125.947 
     797 1.0114763e-07   -796.60682            0   -796.60682    13125.946 
     798 1.1468569e-07   -796.60682            0   -796.60682    13125.945 
     799 1.2901969e-07   -796.60682            0   -796.60682    13125.944 
     800 1.4413665e-07   -796.60682            0   -796.60682    13125.942 
     801 1.6002291e-07   -796.60682            0   -796.60682    13125.941 
     802 1.766642e-07   -796.60682            0   -796.60682     13125.94 
     803 1.940456e-07   -796.60682            0   -796.60682    13125.939 
     804 2.1215163e-07   -796.60682            0   -796.60682    13125.937 
     805 2.3096626e-07   -796.60682            0   -796.60682    13125.936 
     806 2.5047294e-07   -796.60682            0   -796.60682    13125.934 
     807 2.7065466e-07   -796.60682            0   -796.60682    13125.933 
     808 2.9149397e-07   -796.60682            0   -796.60682    13125.931 
     809 3.1297302e-07   -796.60682            0   -796.60682     13125.93 
     810 3.3507361e-07   -796.60682            0   -796.60682    13125.928 
     811 3.5777724e-07   -796.60682            0   -796.60682    13125.926 
     812 3.8106516e-07   -796.60682            0   -796.60682    13125.924 
     813 4.0491841e-07   -796.60682            0   -796.60682    13125.923 
     814 4.2931784e-07   -796.60682            0   -796.60682    13125.921 
     815 4.5424432e-07   -796.60682            0   -796.60682    13125.919 
     816 4.7967827e-07   -796.60682            0   -796.60682    13125.917 
     817 5.056013e-07   -796.60682            0   -796.60682    13125.915 
     818 5.319916e-07   -796.60682            0   -796.60682    13125.913 
     819 5.5883701e-07   -796.60682            0   -796.60682    13125.911 
     820 5.8608673e-07   -796.60682            0   -796.60682    13125.908 
     821 6.1371924e-07   -796.60682            0   -796.60682    13125.906 
     822 6.4045047e-07   -796.60682            0   -796.60682    13125.904 
     823 6.5460687e-07   -796.60682            0   -796.60682    13125.903 
     824 5.1495888e-07   -796.60682            0   -796.60682    13125.896 
     825 5.0194633e-08   -796.60682            0   -796.60682    13125.899 
     826 4.0643689e-08   -796.60682            0   -796.60682    13125.899 
     827 4.4960087e-08   -796.60682            0   -796.60682    13125.898 
     828 5.2235736e-08   -796.60682            0   -796.60682    13125.898 
     829 6.0052723e-08   -796.60682            0   -796.60682    13125.897 
     830 6.8393446e-08   -796.60682            0   -796.60682    13125.897 
     831 7.7247927e-08   -796.60682            0   -796.60682    13125.896 
     832 8.6610314e-08   -796.60682            0   -796.60682    13125.895 
     833 9.6472707e-08   -796.60682            0   -796.60682    13125.894 
     834 1.0682793e-07   -796.60682            0   -796.60682    13125.893 
     835 1.1766766e-07   -796.60682            0   -796.60682    13125.892 
     836  1.28984e-07   -796.60682            0   -796.60682    13125.892 
     837 1.4076801e-07   -796.60682            0   -796.60682    13125.891 
     838 1.5301129e-07   -796.60682            0   -796.60682     13125.89 
     839 1.6570416e-07   -796.60682            0   -796.60682    13125.888 
     840 1.7883817e-07   -796.60682            0   -796.60682    13125.887 
     841 1.9240233e-07   -796.60682            0   -796.60682    13125.886 
     842 2.0638929e-07   -796.60682            0   -796.60682    13125.885 
     843 2.2078416e-07   -796.60682            0   -796.60682    13125.884 
     844 2.355843e-07   -796.60682            0   -796.60682    13125.883 
     845 2.5075059e-07   -796.60682            0   -796.60682    13125.881 
     846 2.662651e-07   -796.60682            0   -796.60682     13125.88 
     847 2.8168021e-07   -796.60682            0   -796.60682    13125.879 
     848 2.9499351e-07   -796.60682            0   -796.60682    13125.878 
     849 2.8942835e-07   -796.60682            0   -796.60682    13125.875 
     850 1.9019209e-07   -796.60682            0   -796.60682    13125.877 
     851 3.2566406e-08   -796.60682            0   -796.60682    13125.875 
     852 2.8058131e-08   -796.60682            0   -796.60682    13125.874 
     853 3.3064448e-08   -796.60682            0   -796.60682    13125.874 
     854 3.8488389e-08   -796.60682            0   -796.60682    13125.873 
     855 4.4311323e-08   -796.60682            0   -796.60682    13125.873 
     856 5.0528098e-08   -796.60682            0   -796.60682    13125.872 
     857 5.7134626e-08   -796.60682            0   -796.60682    13125.872 
     858 6.4126192e-08   -796.60682            0   -796.60682    13125.871 
     859 7.1498026e-08   -796.60682            0   -796.60682    13125.871 
     860 7.9244998e-08   -796.60682            0   -796.60682     13125.87 
     861 8.7361848e-08   -796.60682            0   -796.60682    13125.869 
     862 9.5843016e-08   -796.60682            0   -796.60682    13125.869 
     863 1.0468283e-07   -796.60682            0   -796.60682    13125.868 
     864 1.1387534e-07   -796.60682            0   -796.60682    13125.867 
     865 1.2341453e-07   -796.60682            0   -796.60682    13125.866 
     866 1.3329405e-07   -796.60682            0   -796.60682    13125.865 
     867 1.4350773e-07   -796.60682            0   -796.60682    13125.864 
     868 1.5404867e-07   -796.60682            0   -796.60682    13125.864 
     869 1.6491098e-07   -796.60682            0   -796.60682    13125.863 
     870 1.7608625e-07   -796.60682            0   -796.60682    13125.862 
     871 1.8757053e-07   -796.60682            0   -796.60682    13125.861 
     872 1.9934488e-07   -796.60682            0   -796.60682     13125.86 
     873 2.1139699e-07   -796.60682            0   -796.60682    13125.859 
     874 2.2347586e-07   -796.60682            0   -796.60682    13125.858 
     875 2.3418266e-07   -796.60682            0   -796.60682    13125.857 
     876 2.3021721e-07   -796.60682            0   -796.60682    13125.855 
     877 1.4242661e-07   -796.60682            0   -796.60682    13125.856 
     878 1.5778979e-08   -796.60682            0   -796.60682    13125.855 
     879 1.7977948e-08   -796.60682            0   -796.60682    13125.854 
     880 2.1124601e-08   -796.60682            0   -796.60682    13125.854 
     881 2.4895664e-08   -796.60682            0   -796.60682    13125.854 
     882 2.8969303e-08   -796.60682            0   -796.60682    13125.853 
     883 3.3342179e-08   -796.60682            0   -796.60682    13125.853 
     884 3.8011677e-08   -796.60682            0   -796.60682    13125.853 
     885 4.297486e-08   -796.60682            0   -796.60682    13125.852 
     886 4.8228682e-08   -796.60682            0   -796.60682    13125.852 
     887 5.3769893e-08   -796.60682            0   -796.60682    13125.851 
     888 5.9595108e-08   -796.60682            0   -796.60682    13125.851 
     889 6.5700768e-08   -796.60682            0   -796.60682     13125.85 
     890 7.2083189e-08   -796.60682            0   -796.60682     13125.85 
     891 7.8738526e-08   -796.60682            0   -796.60682    13125.849 
     892 8.5662835e-08   -796.60682            0   -796.60682    13125.848 
     893 9.2852003e-08   -796.60682            0   -796.60682    13125.848 
     894 1.0030188e-07   -796.60682            0   -796.60682    13125.847 
     895 1.0800808e-07   -796.60682            0   -796.60682    13125.847 
     896 1.1596636e-07   -796.60682            0   -796.60682    13125.846 
     897 1.2417192e-07   -796.60682            0   -796.60682    13125.845 
     898 1.3262075e-07   -796.60682            0   -796.60682    13125.845 
     899 1.4130619e-07   -796.60682            0   -796.60682    13125.844 
     900 1.5022374e-07   -796.60682            0   -796.60682    13125.843 
     901 1.5933401e-07   -796.60682            0   -796.60682    13125.842 
     902 1.6845694e-07   -796.60682            0   -796.60682    13125.842 
     903 1.7575795e-07   -796.60682            0   -796.60682    13125.841 
     904 1.6618477e-07   -796.60682            0   -796.60682     13125.84 
     905 7.4641754e-08   -796.60682            0   -796.60682    13125.839 
     906 5.362914e-09   -796.60682            0   -796.60682    13125.839 
     907 8.5443719e-09   -796.60682            0   -796.60682    13125.839 
     908 1.088783e-08   -796.60682            0   -796.60682    13125.839 
     909 1.3267405e-08   -796.60682            0   -796.60682    13125.839 
     910 1.5882826e-08   -796.60682            0   -796.60682    13125.839 
     911 1.8729256e-08   -796.60682            0   -796.60682    13125.838 
     912 2.1804864e-08   -796.60682            0   -796.60682    13125.838 
     913 2.5107935e-08   -796.60682            0   -796.60682    13125.838 
     914 2.8636609e-08   -796.60682            0   -796.60682    13125.838 
     915 3.2388903e-08   -796.60682            0   -796.60682    13125.837 
     916 3.6362711e-08   -796.60682            0   -796.60682    13125.837 
     917 4.0555809e-08   -796.60682            0   -796.60682    13125.837 
     918 4.4965855e-08   -796.60682            0   -796.60682    13125.836 
     919 4.9590401e-08   -796.60682            0   -796.60682    13125.836 
     920 5.4426888e-08   -796.60682            0   -796.60682    13125.835 
     921 5.9472656e-08   -796.60682            0   -796.60682    13125.835 
     922 6.4724944e-08   -796.60682            0   -796.60682    13125.835 
     923 7.0180904e-08   -796.60682            0   -796.60682    13125.834 
     924 7.5837591e-08   -796.60682            0   -796.60682    13125.834 
     925 8.169198e-08   -796.60682            0   -796.60682    13125.833 
     926 8.774096e-08   -796.60682            0   -796.60682    13125.833 
     927 9.3981361e-08   -796.60682            0   -796.60682    13125.832 
     928 1.004099e-07   -796.60682            0   -796.60682    13125.832 
     929 1.0702331e-07   -796.60682            0   -796.60682    13125.831 
     930 1.1381796e-07   -796.60682            0   -796.60682    13125.831 
     931 1.2079041e-07   -796.60682            0   -796.60682     13125.83 
     932 1.2793109e-07   -796.60683            0   -796.60683     13125.83 
     933 1.3519847e-07   -796.60683            0   -796.60683    13125.829 
     934 1.4213256e-07   -796.60683            0   -796.60683    13125.828 
     935 1.4393051e-07   -796.60683            0   -796.60683    13125.828 
     936 9.9686181e-08   -796.60683            0   -796.60683    13125.827 
     937 7.8338668e-09   -796.60683            0   -796.60683    13125.827 
     938 1.0608743e-08   -796.60683            0   -796.60683    13125.827 
     939 1.2605743e-08   -796.60683            0   -796.60683    13125.827 
     940 1.4807505e-08   -796.60683            0   -796.60683    13125.827 
     941 1.7183172e-08   -796.60683            0   -796.60683    13125.827 
     942 1.9731068e-08   -796.60683            0   -796.60683    13125.827 
     943 2.2449656e-08   -796.60683            0   -796.60683    13125.826 
     944 2.5337554e-08   -796.60683            0   -796.60683    13125.826 
     945 2.8393185e-08   -796.60683            0   -796.60683    13125.826 
     946 3.161497e-08   -796.60683            0   -796.60683    13125.826 
     947 3.5001165e-08   -796.60683            0   -796.60683    13125.825 
     948 3.8550024e-08   -796.60683            0   -796.60683    13125.825 
     949 4.2259619e-08   -796.60683            0   -796.60683    13125.825 
     950 4.6128067e-08   -796.60683            0   -796.60683    13125.825 
     951 5.0153207e-08   -796.60683            0   -796.60683    13125.824 
     952 5.433307e-08   -796.60683            0   -796.60683    13125.824 
     953 5.8664908e-08   -796.60683            0   -796.60683    13125.824 
     954 6.3146204e-08   -796.60683            0   -796.60683    13125.823 
     955 6.7768441e-08   -796.60683            0   -796.60683    13125.823 
     956 7.2506168e-08   -796.60683            0   -796.60683    13125.823 
     957 7.7185696e-08   -796.60683            0   -796.60683    13125.822 
     958 8.0718413e-08   -796.60683            0   -796.60683    13125.822 
     959 7.5697432e-08   -796.60683            0   -796.60683    13125.822 
     960 3.7884434e-08   -796.60683            0   -796.60683    13125.822 
     961 5.5007142e-09   -796.60683            0   -796.60683    13125.821 
     962 7.576707e-09   -796.60683            0   -796.60683    13125.821 
     963 9.1254616e-09   -796.60683            0   -796.60683    13125.821 
     964 1.0827804e-08   -796.60683            0   -796.60683    13125.821 
     965 1.2673078e-08   -796.60683            0   -796.60683    13125.821 
     966 1.466012e-08   -796.60683            0   -796.60683    13125.821 
     967 1.678792e-08   -796.60683            0   -796.60683    13125.821 
     968 1.9055352e-08   -796.60683            0   -796.60683     13125.82 
     969 2.1461236e-08   -796.60683            0   -796.60683     13125.82 
     970 2.4004303e-08   -796.60683            0   -796.60683     13125.82 
     971 2.6683221e-08   -796.60683            0   -796.60683     13125.82 
     972 2.9496573e-08   -796.60683            0   -796.60683     13125.82 
     973 3.2442885e-08   -796.60683            0   -796.60683     13125.82 
     974 3.5520592e-08   -796.60683            0   -796.60683    13125.819 
     975 3.8728085e-08   -796.60683            0   -796.60683    13125.819 
     976 4.2063648e-08   -796.60683            0   -796.60683    13125.819 
     977 4.5525553e-08   -796.60683            0   -796.60683    13125.819 
     978 4.9111883e-08   -796.60683            0   -796.60683    13125.818 
     979 5.2820803e-08   -796.60683            0   -796.60683    13125.818 
     980 5.6649534e-08   -796.60683            0   -796.60683    13125.818 
     981 6.0593938e-08   -796.60683            0   -796.60683    13125.818 
     982 6.4630272e-08   -796.60683            0   -796.60683    13125.817 
     983 6.861551e-08   -796.60683            0   -796.60683    13125.817 
     984 7.1347456e-08   -796.60683            0   -796.60683    13125.817 
     985 6.3806211e-08   -796.60683            0   -796.60683    13125.817 
     986 2.1963143e-08   -796.60683            0   -796.60683    13125.817 
     987 2.6579543e-09   -796.60683            0   -796.60683    13125.817 
     988 4.1890179e-09   -796.60683            0   -796.60683    13125.817 
     989 5.3028393e-09   -796.60683            0   -796.60683    13125.816 
     990 6.4785474e-09   -796.60683            0   -796.60683    13125.816 
     991 7.7704529e-09   -796.60683            0   -796.60683    13125.816 
     992 9.1777282e-09   -796.60683            0   -796.60683    13125.816 
     993 1.0699636e-08   -796.60683            0   -796.60683    13125.816 
     994 1.2335375e-08   -796.60683            0   -796.60683    13125.816 
     995 1.4084082e-08   -796.60683            0   -796.60683    13125.816 
     996 1.5944826e-08   -796.60683            0   -796.60683    13125.816 
     997 1.7916615e-08   -796.60683            0   -796.60683    13125.816 
     998 1.9998392e-08   -796.60683            0   -796.60683    13125.816 
     999 2.2189041e-08   -796.60683            0   -796.60683    13125.815 
    1000 2.4487378e-08   -796.60683            0   -796.60683    13125.815 
    1001 2.6892163e-08   -796.60683            0   -796.60683    13125.815 
    1002 2.9402091e-08   -796.60683            0   -796.60683    13125.815 
    1003 3.2015798e-08   -796.60683            0   -796.60683    13125.815 
    1004 3.4731859e-08   -796.60683            0   -796.60683    13125.815 
    1005 3.754879e-08   -796.60683            0   -796.60683    13125.815 
    1006 4.0465045e-08   -796.60683            0   -796.60683    13125.814 
    1007 4.3479023e-08   -796.60683            0   -796.60683    13125.814 
    1008 4.6589059e-08   -796.60683            0   -796.60683    13125.814 
    1009 4.9793427e-08   -796.60683            0   -796.60683    13125.814 
    1010 5.3090368e-08   -796.60683            0   -796.60683    13125.814 
    1011 5.6477884e-08   -796.60683            0   -796.60683    13125.814 
    1012 5.9953957e-08   -796.60683            0   -796.60683    13125.813 
    1013 6.3510574e-08   -796.60683            0   -796.60683    13125.813 
    1014 6.7098654e-08   -796.60683            0   -796.60683    13125.813 
    1015 7.0094507e-08   -796.60683            0   -796.60683    13125.813 
    1016 6.5526586e-08   -796.60683            0   -796.60683    13125.813 
    1017 2.1153917e-08   -796.60683            0   -796.60683    13125.813 
    1018 5.2262149e-10   -796.60683            0   -796.60683    13125.813 
    1019 9.3448821e-10   -796.60683            0   -796.60683    13125.813 
    1020 1.5591867e-09   -796.60683            0   -796.60683    13125.813 
[...]
    1984 6.2108358e-06   -796.61173            0   -796.61173    13041.842 
    1985 5.4904181e-06   -796.61173            0   -796.61173    13041.827 
    1986 6.6604802e-06   -796.61173            0   -796.61173    13041.809 
    1987 7.9511491e-06   -796.61173            0   -796.61173    13041.789 
    1988 9.3459034e-06   -796.61173            0   -796.61173    13041.767 
    1989 1.0841684e-05   -796.61173            0   -796.61173    13041.743 
    1990 1.2434665e-05   -796.61173            0   -796.61173    13041.718 
    1991 1.4121053e-05   -796.61173            0   -796.61173    13041.691 
    1992 1.5896626e-05   -796.61173            0   -796.61173    13041.662 
    1993 1.7757057e-05   -796.61173            0   -796.61173    13041.631 
    1994 1.9697644e-05   -796.61173            0   -796.61173    13041.598 
    1995 2.1713616e-05   -796.61173            0   -796.61173    13041.564 
    1996 2.3799767e-05   -796.61173            0   -796.61173    13041.528 
    1997 2.5951001e-05   -796.61173            0   -796.61173     13041.49 
    1998 2.8161463e-05   -796.61173            0   -796.61173     13041.45 
    1999 3.0426026e-05   -796.61173            0   -796.61173    13041.409 
    2000 3.2736936e-05   -796.61174            0   -796.61173    13041.366 
    2001 3.5088129e-05   -796.61174            0   -796.61174    13041.321 
    2002 3.744592e-05   -796.61174            0   -796.61174    13041.274 
    2003 3.9676085e-05   -796.61174            0   -796.61174    13041.228 
    2004 4.0542286e-05   -796.61174            0   -796.61174    13041.176 
    2005 3.2089745e-05   -796.61174            0   -796.61174    13041.142 
    2006 6.4868024e-06   -796.61174            0   -796.61174    13041.114 
    2007 2.5250186e-06   -796.61174            0   -796.61174    13041.105 
    2008 3.2118669e-06   -796.61174            0   -796.61174    13041.092 
    2009 3.928107e-06   -796.61174            0   -796.61174    13041.078 
    2010 4.7129401e-06   -796.61174            0   -796.61174    13041.062 
    2011 5.5631616e-06   -796.61174            0   -796.61174    13041.045 
    2012 6.476735e-06   -796.61174            0   -796.61174    13041.026 
    2013 7.4513933e-06   -796.61174            0   -796.61174    13041.005 
    2014 8.4847265e-06   -796.61174            0   -796.61174    13040.984 
    2015 9.5741505e-06   -796.61174            0   -796.61174     13040.96 
    2016 1.0716935e-05   -796.61174            0   -796.61174    13040.935 
    2017 1.1910191e-05   -796.61174            0   -796.61174    13040.909 
    2018 1.3150894e-05   -796.61175            0   -796.61175    13040.881 
    2019 1.4435871e-05   -796.61175            0   -796.61175    13040.852 
    2020 1.5761833e-05   -796.61175            0   -796.61175    13040.822 
    2021 1.712534e-05   -796.61175            0   -796.61175     13040.79 
    2022 1.8522885e-05   -796.61175            0   -796.61175    13040.756 
    2023 1.9950745e-05   -796.61175            0   -796.61175    13040.722 
    2024 2.1405299e-05   -796.61175            0   -796.61175    13040.686 
    2025 2.2882182e-05   -796.61175            0   -796.61175    13040.648 
    2026 2.4377306e-05   -796.61175            0   -796.61175     13040.61 
    2027 2.587526e-05   -796.61175            0   -796.61175    13040.569 
    2028 2.7298995e-05   -796.61175            0   -796.61175    13040.529 
    2029 2.7820301e-05   -796.61175            0   -796.61175    13040.485 
    2030 2.0842553e-05   -796.61175            0   -796.61175    13040.454 
    2031 2.3987061e-06   -796.61175            0   -796.61175    13040.438 
    2032 1.8511584e-06   -796.61175            0   -796.61175    13040.428 
    2033 2.2580129e-06   -796.61175            0   -796.61175    13040.417 
    2034 2.7120132e-06   -796.61175            0   -796.61175    13040.404 
    2035 3.2040702e-06   -796.61176            0   -796.61176    13040.391 
    2036 3.732981e-06   -796.61176            0   -796.61176    13040.376 
    2037   4.2974e-06   -796.61176            0   -796.61176     13040.36 
    2038 4.895919e-06   -796.61176            0   -796.61176    13040.343 
    2039 5.5270184e-06   -796.61176            0   -796.61176    13040.324 
    2040 6.1891004e-06   -796.61176            0   -796.61176    13040.305 
    2041 6.8804684e-06   -796.61176            0   -796.61176    13040.284 
    2042 7.5993548e-06   -796.61176            0   -796.61176    13040.262 
    2043 8.3438965e-06   -796.61176            0   -796.61176     13040.24 
    2044 9.1121774e-06   -796.61176            0   -796.61176    13040.216 
    2045 9.9021733e-06   -796.61176            0   -796.61176    13040.191 
    2046 1.0711853e-05   -796.61176            0   -796.61176    13040.164 
    2047 1.1538974e-05   -796.61176            0   -796.61176    13040.137 
    2048 1.2381371e-05   -796.61176            0   -796.61176    13040.109 
    2049 1.3235353e-05   -796.61176            0   -796.61176    13040.079 
    2050 1.4092485e-05   -796.61176            0   -796.61176    13040.049 
    2051 1.4889407e-05   -796.61176            0   -796.61176    13040.017 
    2052 1.5126117e-05   -796.61176            0   -796.61176    13039.987 
    2053 1.1167696e-05   -796.61176            0   -796.61176    13039.957 
    2054 1.5534544e-06   -796.61176            0   -796.61176    13039.949 
    2055 1.0990971e-06   -796.61176            0   -796.61176    13039.941 
    2056 1.342097e-06   -796.61176            0   -796.61176    13039.932 
    2057 1.6128253e-06   -796.61176            0   -796.61176    13039.922 
    2058 1.9063788e-06   -796.61176            0   -796.61176    13039.911 
    2059 2.2219626e-06   -796.61176            0   -796.61176      13039.9 
    2060 2.5587892e-06   -796.61176            0   -796.61176    13039.887 
    2061 2.9160037e-06   -796.61176            0   -796.61176    13039.873 
    2062 3.2927009e-06   -796.61177            0   -796.61177    13039.859 
    2063 3.6879176e-06   -796.61177            0   -796.61177    13039.843 
    2064 4.1006425e-06   -796.61177            0   -796.61177    13039.827 
    2065 4.5298113e-06   -796.61177            0   -796.61177     13039.81 
    2066 4.9743178e-06   -796.61177            0   -796.61177    13039.792 
    2067 5.4330047e-06   -796.61177            0   -796.61177    13039.773 
    2068 5.9046847e-06   -796.61177            0   -796.61177    13039.753 
    2069 6.3881094e-06   -796.61177            0   -796.61177    13039.732 
    2070 6.8820251e-06   -796.61177            0   -796.61177    13039.711 
    2071 7.3849977e-06   -796.61177            0   -796.61177    13039.688 
    2072 7.895366e-06   -796.61177            0   -796.61177    13039.665 
    2073 8.4080783e-06   -796.61177            0   -796.61177    13039.641 
    2074 8.8959926e-06   -796.61177            0   -796.61177    13039.616 
    2075 9.1200438e-06   -796.61177            0   -796.61177    13039.591 
    2076 7.2732768e-06   -796.61177            0   -796.61177    13039.569 
    2077 1.302094e-06   -796.61177            0   -796.61177    13039.559 
    2078 4.5539494e-07   -796.61177            0   -796.61177    13039.554 
    2079 6.0266285e-07   -796.61177            0   -796.61177    13039.548 
    2080 7.4323069e-07   -796.61177            0   -796.61177    13039.542 
    2081 8.9761324e-07   -796.61177            0   -796.61177    13039.534 
    2082 1.0653871e-06   -796.61177            0   -796.61177    13039.526 
    2083 1.2461341e-06   -796.61177            0   -796.61177    13039.517 
    2084 1.4394016e-06   -796.61177            0   -796.61177    13039.507 
    2085 1.6447031e-06   -796.61177            0   -796.61177    13039.497 
    2086 1.8615198e-06   -796.61177            0   -796.61177    13039.486 
    2087 2.0893013e-06   -796.61177            0   -796.61177    13039.474 
    2088 2.3274678e-06   -796.61177            0   -796.61177    13039.461 
    2089 2.5754111e-06   -796.61177            0   -796.61177    13039.448 
    2090 2.8324963e-06   -796.61177            0   -796.61177    13039.434 
    2091 3.0980639e-06   -796.61177            0   -796.61177    13039.419 
    2092 3.3714311e-06   -796.61177            0   -796.61177    13039.404 
    2093 3.651894e-06   -796.61177            0   -796.61177    13039.388 
    2094 3.9387298e-06   -796.61177            0   -796.61177    13039.372 
    2095 4.2311984e-06   -796.61177            0   -796.61177    13039.355 
    2096 4.528546e-06   -796.61177            0   -796.61177    13039.337 
    2097 4.8300031e-06   -796.61177            0   -796.61177    13039.318 
    2098 5.1347997e-06   -796.61177            0   -796.61177    13039.299 
    2099 5.4421266e-06   -796.61178            0   -796.61177     13039.28 
    2100 5.7512179e-06   -796.61178            0   -796.61178    13039.259 
    2101 6.0605956e-06   -796.61178            0   -796.61178    13039.238 
    2102 6.3642142e-06   -796.61178            0   -796.61178    13039.217 
    2103 6.5745104e-06   -796.61178            0   -796.61178    13039.195 
    2104 5.582857e-06   -796.61178            0   -796.61178    13039.177 
    2105 6.782981e-07   -796.61178            0   -796.61178    13039.168 
    2106 1.0143044e-07   -796.61178            0   -796.61178    13039.166 
    2107 1.5778093e-07   -796.61178            0   -796.61178    13039.163 
    2108 2.1334079e-07   -796.61178            0   -796.61178     13039.16 
    2109 2.7239835e-07   -796.61178            0   -796.61178    13039.156 
    2110 3.3797307e-07   -796.61178            0   -796.61178    13039.151 
    2111 4.1019251e-07   -796.61178            0   -796.61178    13039.146 
    2112 4.8887791e-07   -796.61178            0   -796.61178     13039.14 
    2113 5.7383707e-07   -796.61178            0   -796.61178    13039.134 
    2114 6.648623e-07   -796.61178            0   -796.61178    13039.127 
    2115 7.6173015e-07   -796.61178            0   -796.61178     13039.12 
    2116 8.6420222e-07   -796.61178            0   -796.61178    13039.112 
    2117 9.7202578e-07   -796.61178            0   -796.61178    13039.104 
    2118 1.0849346e-06   -796.61178            0   -796.61178    13039.096 
    2119 1.2026499e-06   -796.61178            0   -796.61178    13039.086 
    2120 1.3248808e-06   -796.61178            0   -796.61178    13039.077 
    2121 1.4513257e-06   -796.61178            0   -796.61178    13039.067 
    2122 1.5816733e-06   -796.61178            0   -796.61178    13039.056 
    2123 1.7156032e-06   -796.61178            0   -796.61178    13039.045 
    2124 1.8527876e-06   -796.61178            0   -796.61178    13039.034 
    2125 1.9928919e-06   -796.61178            0   -796.61178    13039.022 
    2126 2.1355772e-06   -796.61178            0   -796.61178     13039.01 
    2127 2.280499e-06   -796.61178            0   -796.61178    13038.997 
    2128 2.4273149e-06   -796.61178            0   -796.61178    13038.984 
    2129 2.5756672e-06   -796.61178            0   -796.61178     13038.97 
    2130 2.7252218e-06   -796.61178            0   -796.61178    13038.956 
    2131 2.8753455e-06   -796.61178            0   -796.61178    13038.942 
    2132 3.0235701e-06   -796.61178            0   -796.61178    13038.927 
    2133 3.1348107e-06   -796.61178            0   -796.61178    13038.912 
    2134 2.7608301e-06   -796.61178            0   -796.61178    13038.899 
    2135 4.4495423e-07   -796.61178            0   -796.61178    13038.892 
    2136 1.9274595e-08   -796.61178            0   -796.61178    13038.891 
    2137 3.4696658e-08   -796.61178            0   -796.61178     13038.89 
    2138 5.6035295e-08   -796.61178            0   -796.61178    13038.889 
    2139 7.9753581e-08   -796.61178            0   -796.61178    13038.886 
    2140 1.0522191e-07   -796.61178            0   -796.61178    13038.884 
    2141 1.3357523e-07   -796.61178            0   -796.61178    13038.881 
    2142 1.6512117e-07   -796.61178            0   -796.61178    13038.878 
    2143 1.9981163e-07   -796.61178            0   -796.61178    13038.874 
    2144 2.3756584e-07   -796.61178            0   -796.61178     13038.87 
    2145 2.7829677e-07   -796.61178            0   -796.61178    13038.866 
    2146 3.2191044e-07   -796.61178            0   -796.61178    13038.861 
    2147 3.6830613e-07   -796.61178            0   -796.61178    13038.856 
    2148 4.1737673e-07   -796.61178            0   -796.61178    13038.851 
    2149 4.6900917e-07   -796.61178            0   -796.61178    13038.846 
    2150 5.2308481e-07   -796.61178            0   -796.61178     13038.84 
    2151 5.7947992e-07   -796.61178            0   -796.61178    13038.833 
    2152 6.3806616e-07   -796.61178            0   -796.61178    13038.827 
    2153 6.9871113e-07   -796.61178            0   -796.61178     13038.82 
    2154 7.6127893e-07   -796.61178            0   -796.61178    13038.813 
    2155 8.2563079e-07   -796.61178            0   -796.61178    13038.805 
    2156 8.9162579e-07   -796.61178            0   -796.61178    13038.797 
    2157 9.5912144e-07   -796.61178            0   -796.61178    13038.789 
    2158 1.0279748e-06   -796.61178            0   -796.61178    13038.781 
    2159 1.0980426e-06   -796.61178            0   -796.61178    13038.772 
    2160 1.1691838e-06   -796.61178            0   -796.61178    13038.763 
    2161 1.2412568e-06   -796.61178            0   -796.61178    13038.754 
    2162 1.3141297e-06   -796.61178            0   -796.61178    13038.744 
    2163 1.3876371e-06   -796.61178            0   -796.61178    13038.735 
    2164 1.461534e-06   -796.61178            0   -796.61178    13038.725 
    2165 1.532825e-06   -796.61178            0   -796.61178    13038.714 
    2166 1.5611061e-06   -796.61178            0   -796.61178    13038.704 
    2167 1.0353541e-06   -796.61178            0   -796.61178    13038.695 
    2168 2.1648786e-08   -796.61178            0   -796.61178    13038.695 
    2169 4.6302522e-08   -796.61178            0   -796.61178    13038.693 
    2170 6.5453574e-08   -796.61178            0   -796.61178    13038.691 
    2171 8.0435669e-08   -796.61178            0   -796.61178    13038.689 
    2172 9.6913229e-08   -796.61178            0   -796.61178    13038.687 
    2173 1.1482063e-07   -796.61178            0   -796.61178    13038.684 
    2174 1.3412095e-07   -796.61178            0   -796.61178    13038.681 
    2175 1.5477487e-07   -796.61178            0   -796.61178    13038.678 
    2176 1.7674041e-07   -796.61178            0   -796.61178    13038.675 
    2177 1.9997327e-07   -796.61178            0   -796.61178    13038.671 
    2178 2.2442696e-07   -796.61178            0   -796.61178    13038.668 
    2179 2.5005308e-07   -796.61178            0   -796.61178    13038.664 
    2180 2.7680159e-07   -796.61178            0   -796.61178    13038.659 
    2181 3.0462107e-07   -796.61178            0   -796.61178    13038.655 
    2182  3.33459e-07   -796.61178            0   -796.61178    13038.651 
    2183 3.6326219e-07   -796.61178            0   -796.61178    13038.646 
    2184 3.9397702e-07   -796.61178            0   -796.61178    13038.641 
    2185 4.2555005e-07   -796.61178            0   -796.61178    13038.636 
    2186 4.5792804e-07   -796.61178            0   -796.61178     13038.63 
    2187 4.9105941e-07   -796.61178            0   -796.61178    13038.625 
    2188 5.2489236e-07   -796.61178            0   -796.61178    13038.619 
    2189  5.59381e-07   -796.61178            0   -796.61178    13038.613 
    2190 5.9446451e-07   -796.61178            0   -796.61178    13038.607 
    2191 6.3006576e-07   -796.61178            0   -796.61178    13038.601 
    2192 6.6533988e-07   -796.61178            0   -796.61178    13038.595 
    2193 6.9140586e-07   -796.61178            0   -796.61178    13038.589 
    2194 5.9493387e-07   -796.61178            0   -796.61178    13038.582 
    2195 8.9527381e-08   -796.61178            0   -796.61178    13038.581 
    2196 9.0651343e-09   -796.61178            0   -796.61178     13038.58 
    2197 1.4857755e-08   -796.61178            0   -796.61178    13038.579 
    2198 2.0900936e-08   -796.61178            0   -796.61178    13038.578 
    2199  2.71304e-08   -796.61178            0   -796.61178    13038.577 
    2200 3.4014104e-08   -796.61178            0   -796.61178    13038.575 
    2201 4.1639034e-08   -796.61178            0   -796.61178    13038.574 
    2202 4.999712e-08   -796.61178            0   -796.61178    13038.572 
    2203 5.9074554e-08   -796.61178            0   -796.61178    13038.571 
    2204 6.8856167e-08   -796.61178            0   -796.61178    13038.569 
    2205 7.9325786e-08   -796.61178            0   -796.61178    13038.567 
    2206 9.0466331e-08   -796.61178            0   -796.61178    13038.564 
    2207 1.0225993e-07   -796.61178            0   -796.61178    13038.562 
    2208 1.1468805e-07   -796.61178            0   -796.61178     13038.56 
    2209 1.2773163e-07   -796.61178            0   -796.61178    13038.557 
    2210 1.4137126e-07   -796.61178            0   -796.61178    13038.554 
    2211 1.555873e-07   -796.61179            0   -796.61179    13038.551 
    2212 1.7036013e-07   -796.61179            0   -796.61179    13038.548 
    2213 1.8567032e-07   -796.61179            0   -796.61179    13038.545 
    2214 2.0149886e-07   -796.61179            0   -796.61179    13038.542 
    2215 2.1782744e-07   -796.61179            0   -796.61179    13038.539 
    2216 2.3463869e-07   -796.61179            0   -796.61179    13038.535 
    2217 2.5191654e-07   -796.61179            0   -796.61179    13038.532 
    2218 2.6964655e-07   -796.61179            0   -796.61179    13038.528 
    2219 2.8781633e-07   -796.61179            0   -796.61179    13038.524 
    2220 3.0641585e-07   -796.61179            0   -796.61179     13038.52 
    2221 3.2543767e-07   -796.61179            0   -796.61179    13038.516 
    2222 3.4487064e-07   -796.61179            0   -796.61179    13038.512 
    2223 3.6461679e-07   -796.61179            0   -796.61179    13038.508 
    2224 3.8318741e-07   -796.61179            0   -796.61179    13038.504 
    2225 3.7676089e-07   -796.61179            0   -796.61179      13038.5 
    2226 1.4679721e-07   -796.61179            0   -796.61179    13038.497 
    2227 1.3529873e-10   -796.61179            0   -796.61179    13038.497 
Loop time of 427.117 on 24 procs for 727 steps with 127 atoms

98.2% CPU use with 24 MPI tasks x no OpenMP threads

Minimization stats:
  Stopping criterion = energy tolerance
  Energy initial, next-to-last, final = 
        -796.606828193     -796.611785453     -796.611785453
  Force two-norm initial, final = 0.0586999 6.28924e-05
  Force max component initial, final = 0.0506856 3.05254e-05
  Final line search alpha, max atom move = 0 0
  Iterations, force evaluations = 727 727

MPI task timing breakdown:
Section |  min time  |  avg time  |  max time  |%varavg| %total
---------------------------------------------------------------
Pair    | 174.81     | 312.21     | 422.98     | 408.7 | 73.10
Neigh   | 0          | 0          | 0          |   0.0 |  0.00
Comm    | 0.24917    | 111.02     | 248.42     | 685.4 | 25.99
Output  | 0.13176    | 0.13234    | 0.13295    |   0.1 |  0.03
Modify  | 3.2843     | 3.2854     | 3.2864     |   0.0 |  0.77
Other   |            | 0.4727     |            |       |  0.11

Nlocal:    5.29167 ave 7 max 3 min
Histogram: 4 0 0 0 0 8 0 9 0 3
Nghost:    758.208 ave 797 max 714 min
Histogram: 8 0 0 0 0 4 4 0 0 8
Neighs:    0 ave 0 max 0 min
Histogram: 24 0 0 0 0 0 0 0 0 0
FullNghs:  1068.33 ave 1405 max 610 min
Histogram: 4 0 0 0 4 4 0 9 0 3

Total # of neighbors = 25640
Ave neighs/atom = 201.89
Neighbor list builds = 0
Dangerous builds = 0
Total wall time: 0:22:05
