LAMMPS (12 Dec 2018)
Processor partition = 2
Reading data file ...
  orthogonal box = (0 0 0) to (10.0025 12.3537 10.615)
  2 by 4 by 3 MPI processor grid
  reading atoms ...
  127 atoms
Reading potential file lammps-force.nnp with DATE: 20201105
Reading potential file lammps_rot.nnp with DATE: 20211226
Neighbor list info ...
  update every 1 steps, delay 0 steps, check yes
  max neighbors/atom: 2000, page size: 100000
  master list distance cutoff = 8
  ghost atom cutoff = 8
  binsize = 4, bins = 3 4 3
  2 neighbor lists, perpetual/occasional/extra = 2 0 0
  (1) pair nnp3v, perpetual
      attributes: full, newton on
      pair build: full/bin/atomonly
      stencil: full/bin/3d
      bin: standard
  (2) pair nnp3v_vf, perpetual, copy from (1)
      attributes: full, newton on
      pair build: copy
      stencil: none
      bin: none
Setting up quickmin style minimization ...
  Unit style    : metal
  Current step  : 0
Per MPI rank memory allocation (min/avg/max) = 3.111 | 3.226 | 3.362 Mbytes
Step Temp E_pair E_mol TotEng Press 
       0            0   -796.79482            0   -796.79482    13324.103 
      24   0.66844098   -796.99042            0   -796.97954    13893.519 
Loop time of 14.5547 on 24 procs for 24 steps with 127 atoms

98.2% CPU use with 24 MPI tasks x no OpenMP threads

Minimization stats:
  Stopping criterion = energy tolerance
  Energy initial, next-to-last, final = 
        -796.794816724     -796.990398619     -796.990424995
  Force two-norm initial, final = 1.98977 0.177561
  Force max component initial, final = 0.330078 0.036579
  Final line search alpha, max atom move = 0 0
  Iterations, force evaluations = 24 24

MPI task timing breakdown:
Section |  min time  |  avg time  |  max time  |%varavg| %total
---------------------------------------------------------------
Pair    | 6.0694     | 10.746     | 14.552     |  77.2 | 73.83
Neigh   | 0          | 0          | 0          |   0.0 |  0.00
Comm    | 0.0018268  | 3.8078     | 8.484      | 129.7 | 26.16
Output  | 0          | 0          | 0          |   0.0 |  0.00
Modify  | 0          | 0          | 0          |   0.0 |  0.00
Other   |            | 0.001263   |            |       |  0.01

Nlocal:    5.29167 ave 7 max 3 min
Histogram: 4 0 0 0 0 9 0 7 0 4
Nghost:    759.125 ave 797 max 714 min
Histogram: 7 1 0 0 0 2 6 0 0 8
Neighs:    0 ave 0 max 0 min
Histogram: 24 0 0 0 0 0 0 0 0 0
FullNghs:  1068 ave 1413 max 614 min
Histogram: 4 0 0 0 5 4 0 7 0 4

Total # of neighbors = 25632
Ave neighs/atom = 201.827
Neighbor list builds = 0
Dangerous builds = 0
Setting up quickmin style minimization ...
  Unit style    : metal
  Current step  : 0
Per MPI rank memory allocation (min/avg/max) = 5.112 | 5.237 | 5.362 Mbytes
Step Temp E_pair E_mol TotEng Press 
       0            0   -795.20167            0   -795.20167    17391.756 
       1    3.1326578   -795.20167            0   -795.15065    17433.303 
       2    13.465496    -795.3025            0   -795.08319    17459.683 
       3    32.273944   -795.49032            0   -794.96468    17502.434 
       4     60.82742   -795.73151            0   -794.74083     17592.04 
       5    93.814632   -795.97191            0   -794.44398    17617.769 
       6     115.4618   -796.16607            0   -794.28557    17240.106 
       7    112.78042   -796.30414            0   -794.46731    16321.604 
       8     102.0021   -796.39825            0   -794.73696    15438.078 
       9    94.156179   -796.46215            0   -794.92865    14933.999 
      10    91.433963   -796.50445            0   -795.01529    14789.555 
      11    132.53357   -796.50234            0   -794.34379    15039.657 
      12    3.4516282   -796.51481            0    -796.4586    13338.957 
      13    4.4039151   -796.52651            0   -796.45479    13375.325 
      14    4.5408837   -796.53543            0   -796.46148    13413.585 
      15    3.1797895   -796.54098            0   -796.48919     13432.68 
      16     1.688853   -796.54484            0   -796.51733    13432.834 
      17    1.5166472   -796.54858            0   -796.52388    13435.965 
      18    1.7577296   -796.55254            0   -796.52392    13439.627 
      19    2.0493647   -796.55671            0   -796.52333     13442.94 
      20    2.3579524   -796.56105            0   -796.52264    13446.528 
      21    2.6808442   -796.56552            0   -796.52186    13450.901 
      22    3.0174132   -796.57011            0   -796.52096    13456.367 
      23    3.3670966   -796.57477            0   -796.51993    13463.049 
      24    3.7295498   -796.57952            0   -796.51878    13470.989 
      25    4.1045339    -796.5843            0   -796.51745    13480.153 
      26    4.4919279   -796.58906            0   -796.51591    13490.486 
      27    4.8915607    -796.5938            0   -796.51413    13501.907 
      28    5.3032485    -796.5985            0   -796.51213    13514.306 
      29     5.726726   -796.60315            0   -796.50988     13527.54 
      30    6.1616323   -796.60772            0   -796.50737    13541.441 
      31    6.6073036   -796.61222            0   -796.50461    13555.821 
      32    7.0635548   -796.61664            0   -796.50159    13570.569 
      33    7.5290822   -796.62096            0   -796.49834     13585.42 
      34    8.0055669   -796.62519            0   -796.49481    13600.361 
      35    8.4857267   -796.62928            0   -796.49108    13614.604 
      36    8.9920675   -796.63331            0   -796.48686      13630.6 
      37    9.4156435   -796.63682            0   -796.48347    13636.826 
      38    8.7355534   -796.63921            0   -796.49693    13658.501 
      39  0.004431349   -796.63921            0   -796.63913    13542.704 
      40   0.01855164   -796.63932            0   -796.63902    13541.722 
      41  0.042398397   -796.63953            0   -796.63884     13539.77 
      42  0.073231945   -796.63981            0   -796.63861    13537.016 
      43   0.10615458   -796.64011            0   -796.63838    13533.754 
      44   0.13308941    -796.6404            0   -796.63823    13530.439 
      45    0.1436259   -796.64069            0   -796.63835    13527.728 
      46   0.14213763   -796.64101            0    -796.6387    13526.347 
      47   0.15559116    -796.6414            0   -796.63887    13526.443 
      48   0.18530672   -796.64185            0   -796.63883    13527.379 
      49   0.22111803   -796.64235            0   -796.63875    13528.612 
      50   0.26016833   -796.64288            0   -796.63865    13529.946 
      51   0.30216717   -796.64346            0   -796.63854    13531.342 
      52   0.34707065   -796.64408            0   -796.63843    13532.797 
      53   0.39481799   -796.64473            0    -796.6383    13534.309 
      54   0.44533791   -796.64542            0   -796.63816    13535.875 
      55   0.49855748   -796.64614            0   -796.63802    13537.486 
      56   0.55439856   -796.64689            0   -796.63786    13539.135 
      57   0.61277928   -796.64767            0   -796.63769    13540.812 
      58   0.67361391   -796.64848            0   -796.63751    13542.507 
      59   0.73681347    -796.6493            0    -796.6373    13544.193 
      60   0.80227398   -796.65016            0   -796.63709    13545.869 
      61   0.86990143   -796.65104            0   -796.63687    13547.531 
      62   0.93959484   -796.65194            0   -796.63664    13549.166 
      63    1.0112487   -796.65286            0   -796.63639     13550.75 
      64    1.0847502    -796.6538            0   -796.63613    13552.285 
      65    1.1599847   -796.65475            0   -796.63586    13553.758 
      66    1.2368274   -796.65572            0   -796.63558    13555.159 
      67    1.3151579    -796.6567            0   -796.63528    13556.478 
      68    1.3948287    -796.6577            0   -796.63499    13557.705 
      69    1.4757336   -796.65871            0   -796.63468    13558.828 
      70    1.5576709   -796.65973            0   -796.63436    13559.823 
      71    1.6405968   -796.66073            0   -796.63401    13560.708 
      72    1.7240184   -796.66175            0   -796.63367    13561.378 
      73    1.8081804   -796.66276            0   -796.63331    13562.152 
      74    1.8859317   -796.66379            0   -796.63307    13561.754 
      75    1.9007894    -796.6647            0   -796.63374    13563.865 
      76    1.1950618   -796.66533            0   -796.64587    13546.893 
      77  0.016171089    -796.6654            0   -796.66514    13532.163 
      78  0.023155013   -796.66549            0   -796.66511    13533.313 
      79  0.030099272   -796.66559            0    -796.6651    13534.436 
      80  0.036407131    -796.6657            0    -796.6651     13535.25 
      81  0.043399304   -796.66582            0   -796.66512    13535.641 
      82  0.052634876   -796.66597            0   -796.66511    13535.752 
      83  0.063589394   -796.66613            0    -796.6651    13535.739 
      84  0.075711238   -796.66631            0   -796.66508    13535.681 
      85  0.088854963   -796.66651            0   -796.66506    13535.603 
      86   0.10298534   -796.66672            0   -796.66504    13535.508 
      87    0.1180796   -796.66694            0   -796.66502    13535.395 
      88   0.13411494   -796.66718            0     -796.665    13535.264 
      89   0.15106723   -796.66744            0   -796.66498    13535.113 
      90   0.16891071   -796.66771            0   -796.66495     13534.94 
      91   0.18761804   -796.66799            0   -796.66493    13534.744 
      92   0.20716039   -796.66828            0   -796.66491    13534.522 
      93   0.22750731   -796.66859            0   -796.66489    13534.272 
      94   0.24862687   -796.66891            0   -796.66486    13533.984 
      95   0.27048448   -796.66925            0   -796.66484    13533.663 
      96   0.29304679   -796.66959            0   -796.66482    13533.306 
      97   0.31627657   -796.66995            0    -796.6648    13532.913 
      98   0.34013671   -796.67031            0   -796.66478     13532.48 
      99   0.36458835   -796.67069            0   -796.66475    13532.004 
     100   0.38958998   -796.67107            0   -796.66473    13531.482 
     101   0.41509943   -796.67147            0   -796.66471    13530.914 
     102    0.4410731   -796.67187            0   -796.66469    13530.298 
     103   0.46746627   -796.67228            0   -796.66467     13529.63 
     104   0.49423234    -796.6727            0   -796.66465    13528.911 
     105    0.5213249   -796.67313            0   -796.66464    13528.136 
     106   0.54869206   -796.67358            0   -796.66464    13527.297 
     107   0.57630274   -796.67403            0   -796.66465    13526.372 
     108   0.60406426   -796.67449            0   -796.66466    13525.434 
     109   0.63186771   -796.67496            0   -796.66467    13524.299 
     110   0.65826132   -796.67544            0   -796.66472    13523.501 
     111   0.67134251   -796.67591            0   -796.66498    13521.106 
     112     0.546387   -796.67634            0   -796.66744    13521.284 
     113  0.088104682   -796.67646            0   -796.67503    13511.739 
     114  0.033114126   -796.67656            0   -796.67602    13511.286 
     115  0.037785786   -796.67667            0   -796.67605    13511.025 
     116  0.043799739   -796.67678            0   -796.67607    13510.713 
     117  0.050226534    -796.6769            0   -796.67608    13510.375 
     118  0.057053232   -796.67703            0    -796.6761    13510.009 
     119  0.064269133   -796.67717            0   -796.67612    13509.616 
     120  0.071862977   -796.67732            0   -796.67614    13509.194 
     121  0.079822831   -796.67747            0   -796.67617    13508.745 
     122  0.088136113   -796.67763            0    -796.6762    13508.266 
     123    0.0967896    -796.6778            0   -796.67622    13507.759 
     124   0.10576944   -796.67798            0   -796.67625    13507.222 
     125   0.11506115   -796.67816            0   -796.67629    13506.655 
     126   0.12464971   -796.67835            0   -796.67632    13506.058 
     127   0.13451949   -796.67855            0   -796.67636     13505.43 
     128   0.14465433   -796.67876            0    -796.6764    13504.771 
     129   0.15503767   -796.67897            0   -796.67644     13504.08 
     130    0.1656522   -796.67919            0   -796.67649    13503.356 
     131   0.17648013   -796.67941            0   -796.67654      13502.6 
     132   0.18750334   -796.67964            0   -796.67659    13501.811 
     133   0.19870315   -796.67988            0   -796.67665    13500.989 
     134   0.21006066   -796.68013            0    -796.6767    13500.133 
     135   0.22155651   -796.68038            0   -796.67677    13499.243 
     136   0.23317099   -796.68063            0   -796.67683    13498.317 
     137    0.2448824   -796.68089            0    -796.6769    13497.359 
     138   0.25667371   -796.68116            0   -796.67698     13496.36 
     139   0.26851411   -796.68143            0   -796.67706    13495.342 
     140   0.28040874   -796.68171            0   -796.67714    13494.241 
     141   0.29222213   -796.68199            0   -796.67723    13493.252 
     142   0.30394661   -796.68227            0   -796.67732    13491.737 
     143   0.31136034   -796.68255            0   -796.67748     13491.83 
     144   0.28029155   -796.68282            0   -796.67826    13486.111 
     145   0.06385879   -796.68289            0   -796.68185    13487.066 
     146  0.012301682   -796.68295            0   -796.68275    13485.253 
     147  0.013196678     -796.683            0   -796.68279     13484.82 
     148  0.015466782   -796.68306            0   -796.68281    13484.554 
     149  0.017994282   -796.68313            0   -796.68284    13484.282 
     150  0.020700895    -796.6832            0   -796.68286    13483.986 
     151  0.023580471   -796.68328            0   -796.68289    13483.669 
     152  0.026628546   -796.68336            0   -796.68292    13483.328 
     153  0.029840352   -796.68344            0   -796.68295    13482.964 
     154  0.033210714   -796.68353            0   -796.68299    13482.573 
     155   0.03673413   -796.68362            0   -796.68303     13482.16 
     156  0.040405204   -796.68372            0   -796.68307    13481.724 
     157  0.044218094   -796.68383            0   -796.68311    13481.266 
     158  0.048166705   -796.68393            0   -796.68315    13480.784 
     159  0.052244706   -796.68405            0    -796.6832     13480.28 
     160  0.056445537   -796.68416            0   -796.68325    13479.754 
     161  0.060762473   -796.68429            0    -796.6833    13479.204 
     162  0.065188449   -796.68441            0   -796.68335    13478.632 
     163  0.069716311   -796.68454            0   -796.68341    13478.038 
     164  0.074338691   -796.68468            0   -796.68347     13477.42 
     165  0.079048068   -796.68481            0   -796.68353     13476.78 
     166  0.083836742   -796.68496            0   -796.68359    13476.117 
     167  0.088696799    -796.6851            0   -796.68366    13475.432 
     168   0.09362031   -796.68525            0   -796.68373    13474.723 
     169  0.098599283   -796.68541            0    -796.6838    13473.992 
     170   0.10362523   -796.68557            0   -796.68388    13473.239 
     171   0.10869013   -796.68573            0   -796.68396    13472.463 
     172   0.11378465   -796.68589            0   -796.68404    13471.663 
     173   0.11890192   -796.68605            0   -796.68412    13470.838 
     174   0.12402564   -796.68622            0    -796.6842    13469.997 
     175   0.12914831   -796.68639            0   -796.68429    13469.116 
     176   0.13400981   -796.68657            0   -796.68438    13468.272 
     177   0.13661369   -796.68674            0   -796.68452    13467.175 
     178   0.11309604   -796.68689            0   -796.68505    13466.526 
     179  0.018712629   -796.68696            0   -796.68665    13464.363 
     180 0.0040148393   -796.68698            0   -796.68692    13464.163 
     181 0.0050195624   -796.68701            0   -796.68693    13464.048 
     182 0.0059980409   -796.68705            0   -796.68695    13463.877 
     183 0.0070555655   -796.68708            0   -796.68697    13463.681 
     184 0.0081929702   -796.68713            0   -796.68699    13463.469 
     185 0.0094088313   -796.68717            0   -796.68702     13463.24 
     186  0.010701377   -796.68722            0   -796.68704    13462.994 
     187  0.012068634   -796.68727            0   -796.68707    13462.732 
     188  0.013508509   -796.68732            0    -796.6871    13462.453 
     189  0.015018794   -796.68738            0   -796.68713    13462.158 
     190  0.016597162   -796.68744            0   -796.68716    13461.847 
     191  0.018241179    -796.6875            0    -796.6872    13461.519 
     192  0.019948297   -796.68756            0   -796.68724    13461.176 
     193  0.021715863   -796.68763            0   -796.68728    13460.815 
     194  0.023541154    -796.6877            0   -796.68732    13460.437 
     195  0.025421343   -796.68777            0   -796.68736    13460.043 
     196   0.02735348   -796.68785            0    -796.6874    13459.633 
     197  0.029334581   -796.68793            0   -796.68745    13459.207 
     198  0.031361543   -796.68801            0    -796.6875    13458.765 
     199   0.03343119   -796.68809            0   -796.68755    13458.307 
     200  0.035540282   -796.68818            0    -796.6876    13457.834 
     201  0.037685517   -796.68827            0   -796.68766    13457.345 
     202  0.039863531   -796.68836            0   -796.68771    13456.841 
     203  0.042070904   -796.68846            0   -796.68777    13456.321 
     204   0.04430418   -796.68855            0   -796.68783    13455.787 
     205  0.046559825   -796.68865            0   -796.68789    13455.238 
     206  0.048834372   -796.68875            0   -796.68796    13454.673 
     207  0.051124042   -796.68886            0   -796.68803    13454.095 
     208  0.053425739   -796.68896            0   -796.68809    13453.501 
     209   0.05573412   -796.68907            0   -796.68816    13452.897 
     210  0.058048349   -796.68918            0   -796.68824    13452.265 
     211  0.060333212   -796.68929            0   -796.68831    13451.664 
     212  0.062440636   -796.68941            0   -796.68839    13450.901 
     213  0.061997315   -796.68952            0   -796.68851    13450.608 
     214  0.040552528    -796.6896            0   -796.68894    13448.905 
     215 0.0018022457   -796.68961            0   -796.68958    13448.612 
     216 0.0020927438   -796.68963            0    -796.6896    13448.748 
     217 0.0022932813   -796.68965            0   -796.68961    13448.729 
     218 0.0026768899   -796.68967            0   -796.68963    13448.624 
     219 0.0031499982    -796.6897            0   -796.68965    13448.488 
     220 0.0036620056   -796.68972            0   -796.68966    13448.338 
     221 0.0042097131   -796.68975            0   -796.68968    13448.176 
     222 0.0047923783   -796.68978            0    -796.6897    13448.002 
     223 0.0054091465   -796.68981            0   -796.68973    13447.817 
     224 0.0060591071   -796.68985            0   -796.68975    13447.621 
     225 0.0067412991   -796.68989            0   -796.68978    13447.413 
     226 0.0074547122   -796.68992            0    -796.6898    13447.193 
     227 0.0081982876   -796.68996            0   -796.68983    13446.962 
     228 0.0089709196   -796.69001            0   -796.68986     13446.72 
     229 0.0097714632   -796.69005            0   -796.68989    13446.467 
     230  0.010598719    -796.6901            0   -796.68992    13446.202 
     231  0.011451451   -796.69014            0   -796.68996    13445.927 
     232  0.012328386   -796.69019            0   -796.68999     13445.64 
     233  0.013228213   -796.69025            0   -796.69003    13445.343 
     234  0.014149584    -796.6903            0   -796.69007    13445.034 
     235   0.01509112   -796.69036            0   -796.69011    13444.716 
     236  0.016051418   -796.69041            0   -796.69015    13444.387 
     237  0.017029075   -796.69047            0   -796.69019    13444.047 
     238  0.018022598   -796.69053            0   -796.69024    13443.697 
     239  0.019030475   -796.69059            0   -796.69028    13443.337 
     240  0.020051232   -796.69066            0   -796.69033    13442.967 
     241  0.021083279   -796.69072            0   -796.69038    13442.586 
     242  0.022125188   -796.69079            0   -796.69043    13442.195 
     243   0.02317517   -796.69086            0   -796.69048    13441.795 
     244  0.024232104   -796.69093            0   -796.69054    13441.385 
     245  0.025293371     -796.691            0   -796.69059    13440.966 
     246  0.026359131   -796.69108            0   -796.69065    13440.537 
     247  0.027417003   -796.69115            0   -796.69071    13440.098 
     248    0.0284244   -796.69123            0   -796.69077     13439.65 
     249  0.028689929    -796.6913            0   -796.69084    13439.192 
     250   0.02188659   -796.69137            0   -796.69102     13438.69 
     251 0.0021486877   -796.69139            0   -796.69136     13438.32 
     252 0.0014415962   -796.69141            0   -796.69138    13438.208 
     253 0.0016814601   -796.69143            0    -796.6914    13438.105 
     254   0.00193794   -796.69144            0   -796.69141    13437.993 
     255 0.0022112076   -796.69147            0   -796.69143    13437.873 
     256 0.0025008684   -796.69149            0   -796.69145    13437.744 
     257   0.00280651   -796.69151            0   -796.69146    13437.608 
     258 0.0031276948   -796.69154            0   -796.69148    13437.463 
     259 0.0034639658   -796.69156            0   -796.69151     13437.31 
     260 0.0038148407   -796.69159            0   -796.69153     13437.15 
     261 0.0041798165   -796.69162            0   -796.69155    13436.981 
     262 0.0045583687   -796.69165            0   -796.69157    13436.805 
     263 0.0049499532   -796.69168            0    -796.6916    13436.621 
     264 0.0053540061   -796.69171            0   -796.69163    13436.429 
     265 0.0057699453   -796.69175            0   -796.69165    13436.229 
     266 0.0061971711   -796.69178            0   -796.69168    13436.022 
     267 0.0066350671   -796.69182            0   -796.69171    13435.807 
     268 0.0070830014   -796.69186            0   -796.69174    13435.585 
     269 0.0075403274   -796.69189            0   -796.69177    13435.356 
     270 0.0080063831   -796.69194            0    -796.6918    13435.118 
     271 0.0084804926   -796.69198            0   -796.69184    13434.874 
     272 0.0089619609   -796.69202            0   -796.69187    13434.622 
     273 0.0094501089   -796.69206            0   -796.69191    13434.362 
     274 0.0099442262   -796.69211            0   -796.69195    13434.096 
     275  0.010443604   -796.69215            0   -796.69198    13433.823 
     276  0.010947506    -796.6922            0   -796.69202    13433.543 
     277   0.01145523   -796.69225            0   -796.69206    13433.257 
     278  0.011965944    -796.6923            0    -796.6921    13432.964 
     279  0.012478781   -796.69235            0   -796.69214    13432.665 
     280   0.01298981    -796.6924            0   -796.69218    13432.356 
     281  0.013470285   -796.69245            0   -796.69223    13432.052 
     282  0.013589893    -796.6925            0   -796.69228    13431.707 
     283  0.010266439   -796.69254            0   -796.69238    13431.464 
     284 0.0010449678   -796.69256            0   -796.69254    13431.188 
     285 0.0007122142   -796.69257            0   -796.69256    13431.125 
     286 0.00083092598   -796.69258            0   -796.69257    13431.051 
     287 0.00095757024   -796.69259            0   -796.69258    13430.972 
     288 0.0010925193   -796.69261            0   -796.69259    13430.886 
     289  0.001235582   -796.69262            0    -796.6926    13430.795 
     290 0.0013865604   -796.69264            0   -796.69262    13430.698 
     291 0.0015452454   -796.69266            0   -796.69263    13430.595 
     292 0.0017114167   -796.69267            0   -796.69265    13430.487 
     293 0.0018848431   -796.69269            0   -796.69266    13430.373 
     294 0.0020652831   -796.69271            0   -796.69268    13430.253 
     295 0.0022524849   -796.69273            0    -796.6927    13430.128 
     296 0.0024461868   -796.69275            0   -796.69271    13429.998 
     297 0.0026461179   -796.69278            0   -796.69273    13429.861 
     298 0.0028519984    -796.6928            0   -796.69275     13429.72 
     299 0.0030635398   -796.69282            0   -796.69277    13429.573 
     300 0.0032804456   -796.69285            0    -796.6928    13429.421 
     301 0.0035024112   -796.69287            0   -796.69282    13429.263 
     302 0.0037291252    -796.6929            0   -796.69284      13429.1 
     303 0.0039602692   -796.69293            0   -796.69286    13428.932 
     304 0.0041955185   -796.69296            0   -796.69289    13428.759 
     305 0.0044345429   -796.69298            0   -796.69291    13428.581 
     306 0.0046770064   -796.69301            0   -796.69294    13428.399 
     307 0.0049225559   -796.69304            0   -796.69296    13428.211 
     308 0.0051708623   -796.69307            0   -796.69299    13428.018 
     309 0.0054215499    -796.6931            0   -796.69302    13427.821 
     310 0.0056743142   -796.69314            0   -796.69304    13427.619 
     311 0.0059286881   -796.69317            0   -796.69307    13427.412 
     312 0.0061844112    -796.6932            0    -796.6931    13427.201 
     313 0.0064393987   -796.69324            0   -796.69313    13426.984 
     314  0.006682272   -796.69327            0   -796.69316    13426.768 
     315 0.0067719642    -796.6933            0   -796.69319    13426.531 
     316 0.0053762184   -796.69333            0   -796.69325    13426.351 
     317 0.00070351141   -796.69335            0   -796.69333    13426.179 
     318 0.00024409966   -796.69335            0   -796.69335    13426.142 
     319 0.00030592601   -796.69336            0   -796.69335      13426.1 
     320 0.00036101008   -796.69337            0   -796.69336    13426.051 
     321 0.00042007906   -796.69337            0   -796.69337    13425.999 
     322 0.00048333554   -796.69338            0   -796.69337    13425.942 
     323 0.00055069183   -796.69339            0   -796.69338    13425.881 
     324 0.00062205657    -796.6934            0   -796.69339    13425.816 
     325 0.00069733332   -796.69341            0    -796.6934    13425.747 
     326 0.00077642017   -796.69342            0   -796.69341    13425.674 
     327 0.00085920978   -796.69344            0   -796.69342    13425.597 
     328 0.00094558957   -796.69345            0   -796.69343    13425.517 
     329 0.0010354419   -796.69346            0   -796.69344    13425.432 
     330 0.0011286441   -796.69347            0   -796.69346    13425.343 
     331 0.0012250687   -796.69349            0   -796.69347     13425.25 
     332  0.001324584    -796.6935            0   -796.69348    13425.154 
     333 0.0014270537   -796.69352            0    -796.6935    13425.054 
     334 0.0015323371   -796.69353            0   -796.69351     13424.95 
     335 0.0016402897   -796.69355            0   -796.69352    13424.842 
     336 0.0017507635   -796.69357            0   -796.69354     13424.73 
     337 0.0018636065   -796.69359            0   -796.69356    13424.615 
     338 0.0019786637    -796.6936            0   -796.69357    13424.496 
     339 0.0020957767   -796.69362            0   -796.69359    13424.374 
     340 0.0022147843   -796.69364            0   -796.69361    13424.248 
     341 0.0023355229   -796.69366            0   -796.69362    13424.118 
     342 0.0024578258   -796.69368            0   -796.69364    13423.986 
     343 0.0025815248    -796.6937            0   -796.69366    13423.849 
     344 0.0027064491   -796.69372            0   -796.69368    13423.709 
     345 0.0028324271   -796.69374            0    -796.6937    13423.566 
     346 0.0029592829   -796.69377            0   -796.69372     13423.42 
     347 0.0030868436   -796.69379            0   -796.69374    13423.271 
     348 0.0032148968   -796.69381            0   -796.69376    13423.118 
     349 0.0033430515   -796.69383            0   -796.69378    13422.962 
     350 0.0034683921   -796.69386            0    -796.6938    13422.802 
     351 0.0035595458   -796.69388            0   -796.69382    13422.646 
     352 0.0032459558    -796.6939            0   -796.69385    13422.466 
     353 0.00092763853   -796.69391            0    -796.6939    13422.393 
     354 1.5528328e-05   -796.69392            0   -796.69392    13422.366 
     355 2.7105162e-05   -796.69392            0   -796.69392    13422.349 
     356 4.437014e-05   -796.69392            0   -796.69392    13422.328 
     357 6.4669702e-05   -796.69392            0   -796.69392    13422.305 
     358 8.4805391e-05   -796.69393            0   -796.69392     13422.28 
     359 0.00010539683   -796.69393            0   -796.69393    13422.254 
     360 0.00012762654   -796.69393            0   -796.69393    13422.225 
     361 0.00015183329   -796.69394            0   -796.69394    13422.194 
     362 0.00017803526   -796.69394            0   -796.69394    13422.159 
     363 0.00020620142   -796.69395            0   -796.69395    13422.122 
     364  0.000236295   -796.69395            0   -796.69395    13422.082 
     365 0.00026827638   -796.69396            0   -796.69396     13422.04 
     366 0.00030210327   -796.69397            0   -796.69396    13421.994 
     367 0.00033773082   -796.69397            0   -796.69397    13421.946 
     368 0.00037511164   -796.69398            0   -796.69398    13421.896 
     369 0.0004141959   -796.69399            0   -796.69398    13421.842 
     370 0.00045493139     -796.694            0   -796.69399    13421.786 
     371 0.00049726358   -796.69401            0     -796.694    13421.727 
     372 0.00054113571   -796.69402            0   -796.69401    13421.665 
     373 0.00058648903   -796.69402            0   -796.69401    13421.601 
     374 0.00063326248   -796.69403            0   -796.69402    13421.534 
     375 0.00068139301   -796.69404            0   -796.69403    13421.465 
     376 0.00073081575   -796.69405            0   -796.69404    13421.393 
     377 0.00078146399   -796.69406            0   -796.69405    13421.318 
     378 0.0008332693   -796.69408            0   -796.69406    13421.241 
     379 0.00088616163   -796.69409            0   -796.69407    13421.162 
     380 0.00094006939    -796.6941            0   -796.69408     13421.08 
     381 0.00099491955   -796.69411            0   -796.69409    13420.995 
     382 0.0010506382   -796.69412            0   -796.69411    13420.909 
     383 0.0011071497   -796.69413            0   -796.69412    13420.819 
     384 0.0011643769   -796.69415            0   -796.69413    13420.728 
     385 0.0012222422   -796.69416            0   -796.69414    13420.634 
     386 0.0012806667   -796.69417            0   -796.69415    13420.538 
     387 0.0013395709   -796.69419            0   -796.69417    13420.439 
     388 0.0013988745    -796.6942            0   -796.69418    13420.339 
     389 0.0014584958   -796.69422            0   -796.69419    13420.236 
     390 0.0015183471   -796.69423            0   -796.69421    13420.131 
     391 0.0015782846   -796.69424            0   -796.69422    13420.023 
     392 0.0016375477   -796.69426            0   -796.69423    13419.914 
     393  0.001687888   -796.69427            0   -796.69425    13419.803 
     394 0.0016266677   -796.69429            0   -796.69426    13419.693 
     395 0.00073514056    -796.6943            0   -796.69429    13419.608 
     396 9.0559056e-06    -796.6943            0    -796.6943    13419.591 
     397   1.6371e-05    -796.6943            0    -796.6943    13419.582 
     398 2.7660463e-05    -796.6943            0    -796.6943    13419.569 
     399 3.9504712e-05    -796.6943            0    -796.6943    13419.554 
     400 4.9858308e-05   -796.69431            0   -796.69431    13419.536 
     401 6.0308788e-05   -796.69431            0   -796.69431    13419.516 
     402 7.1586642e-05   -796.69431            0   -796.69431    13419.494 
     403 8.3776354e-05   -796.69432            0   -796.69431    13419.471 
     404 9.6867857e-05   -796.69432            0   -796.69432    13419.446 
     405 0.00011084439   -796.69432            0   -796.69432    13419.418 
     406 0.00012568778   -796.69433            0   -796.69432    13419.389 
     407 0.00014137864   -796.69433            0   -796.69433    13419.358 
     408 0.00015789643   -796.69433            0   -796.69433    13419.325 
     409 0.00017521943   -796.69434            0   -796.69434     13419.29 
     410 0.00019332483   -796.69434            0   -796.69434    13419.254 
     411 0.00021218874   -796.69435            0   -796.69435    13419.215 
     412 0.00023178618   -796.69435            0   -796.69435    13419.175 
     413 0.00025209118   -796.69436            0   -796.69436    13419.133 
     414 0.00027307678   -796.69437            0   -796.69436    13419.089 
     415 0.00029471508   -796.69437            0   -796.69437    13419.044 
     416 0.00031697723   -796.69438            0   -796.69437    13418.996 
     417 0.00033983354   -796.69438            0   -796.69438    13418.947 
     418 0.0003632536   -796.69439            0   -796.69438    13418.896 
     419 0.00038720609    -796.6944            0   -796.69439    13418.843 
     420 0.00041165884    -796.6944            0    -796.6944    13418.789 
     421 0.00043657908   -796.69441            0    -796.6944    13418.733 
     422 0.00046193334   -796.69442            0   -796.69441    13418.676 
     423 0.00048768753   -796.69443            0   -796.69442    13418.616 
     424 0.00051380697   -796.69443            0   -796.69443    13418.555 
     425 0.00054025642   -796.69444            0   -796.69443    13418.493 
     426 0.00056700026   -796.69445            0   -796.69444    13418.429 
     427 0.00059400207   -796.69446            0   -796.69445    13418.363 
     428 0.00062122595   -796.69447            0   -796.69446    13418.296 
     429 0.00064863316   -796.69447            0   -796.69446    13418.227 
     430 0.00067619149   -796.69448            0   -796.69447    13418.157 
     431 0.00070384778   -796.69449            0   -796.69448    13418.086 
     432 0.00073160455    -796.6945            0   -796.69449    13418.012 
     433 0.0007592004   -796.69451            0    -796.6945     13417.94 
     434 0.00078617914   -796.69452            0   -796.69451    13417.855 
     435 0.00079787896   -796.69453            0   -796.69451    13417.812 
     436 0.0006438484   -796.69454            0   -796.69453    13417.648 
     437 6.1962807e-05   -796.69454            0   -796.69454    13417.684 
     438 4.5504619e-05   -796.69454            0   -796.69454    13417.682 
     439 5.0495932e-05   -796.69454            0   -796.69454    13417.663 
     440 5.7376036e-05   -796.69454            0   -796.69454    13417.643 
     441 6.4688829e-05   -796.69454            0   -796.69454    13417.622 
     442 7.2395336e-05   -796.69455            0   -796.69455      13417.6 
     443 8.0487483e-05   -796.69455            0   -796.69455    13417.576 
     444 8.8953685e-05   -796.69455            0   -796.69455    13417.551 
     445 9.7783237e-05   -796.69456            0   -796.69455    13417.525 
     446 0.00010696432   -796.69456            0   -796.69456    13417.498 
     447 0.00011648498   -796.69456            0   -796.69456    13417.469 
     448 0.00012633255   -796.69457            0   -796.69456    13417.439 
     449 0.00013649407   -796.69457            0   -796.69457    13417.408 
     450 0.00014695604   -796.69457            0   -796.69457    13417.376 
     451 0.0001577046   -796.69458            0   -796.69457    13417.343 
     452 0.00016872546   -796.69458            0   -796.69458    13417.308 
     453 0.00018000389   -796.69458            0   -796.69458    13417.272 
     454 0.00019152497   -796.69459            0   -796.69459    13417.235 
     455 0.00020327294   -796.69459            0   -796.69459    13417.197 
     456 0.00021523271    -796.6946            0   -796.69459    13417.158 
     457 0.00022738596    -796.6946            0    -796.6946    13417.118 
     458 0.00023971839   -796.69461            0    -796.6946    13417.075 
     459 0.00025219113   -796.69461            0   -796.69461    13417.035 
     460 0.00026475159   -796.69462            0   -796.69461    13416.985 
     461 0.00027691547   -796.69462            0   -796.69462    13416.957 
     462 0.00028626295   -796.69462            0   -796.69462    13416.868 
     463 0.00027425353   -796.69463            0   -796.69462    13416.937 
     464 0.00015944646   -796.69463            0   -796.69463    13416.734 
     465 2.6282945e-05   -796.69463            0   -796.69463    13416.799 
     466 2.0136583e-05   -796.69463            0   -796.69463    13416.806 
     467 2.2809939e-05   -796.69464            0   -796.69464    13416.795 
     468 2.6437873e-05   -796.69464            0   -796.69464    13416.782 
     469 3.0317759e-05   -796.69464            0   -796.69464    13416.767 
     470 3.4443065e-05   -796.69464            0   -796.69464    13416.752 
     471 3.8808366e-05   -796.69464            0   -796.69464    13416.736 
     472 4.3408014e-05   -796.69464            0   -796.69464    13416.719 
     473 4.8236015e-05   -796.69465            0   -796.69464    13416.701 
     474 5.3286067e-05   -796.69465            0   -796.69465    13416.681 
     475 5.8551556e-05   -796.69465            0   -796.69465    13416.661 
     476 6.4025571e-05   -796.69465            0   -796.69465     13416.64 
     477 6.9700909e-05   -796.69465            0   -796.69465    13416.618 
     478 7.5570088e-05   -796.69466            0   -796.69465    13416.595 
     479 8.1625352e-05   -796.69466            0   -796.69466    13416.571 
     480 8.7858681e-05   -796.69466            0   -796.69466    13416.546 
     481 9.4261806e-05   -796.69466            0   -796.69466     13416.52 
     482 0.00010082621   -796.69467            0   -796.69466    13416.494 
     483 0.00010754316   -796.69467            0   -796.69467    13416.466 
     484 0.00011440368   -796.69467            0   -796.69467    13416.438 
     485 0.00012139859   -796.69467            0   -796.69467    13416.408 
     486 0.00012851854   -796.69468            0   -796.69467    13416.378 
     487 0.00013575396   -796.69468            0   -796.69468    13416.347 
     488 0.00014309513   -796.69468            0   -796.69468    13416.315 
     489 0.00015053205   -796.69469            0   -796.69468    13416.282 
     490 0.00015805492   -796.69469            0   -796.69469    13416.249 
     491 0.00016565292   -796.69469            0   -796.69469    13416.214 
     492 0.00017331741    -796.6947            0   -796.69469    13416.179 
     493 0.0001810339    -796.6947            0    -796.6947    13416.143 
     494 0.00018880941    -796.6947            0    -796.6947    13416.104 
     495 0.00019664037   -796.69471            0    -796.6947    13416.074 
     496 0.00020518582   -796.69471            0   -796.69471    13416.013 
     497 0.00022035577   -796.69471            0   -796.69471    13416.052 
     498 0.00027625381   -796.69472            0   -796.69471    13415.802 
     499 6.7401666e-05   -796.69472            0   -796.69471     13415.93 
     500 1.428857e-05   -796.69472            0   -796.69472    13415.943 
     501 1.4698561e-05   -796.69472            0   -796.69472    13415.931 
     502 1.6756198e-05   -796.69472            0   -796.69472    13415.921 
     503 1.8956741e-05   -796.69472            0   -796.69472     13415.91 
     504 2.1280384e-05   -796.69472            0   -796.69472    13415.898 
     505 2.3724269e-05   -796.69472            0   -796.69472    13415.885 
     506 2.6284919e-05   -796.69472            0   -796.69472    13415.872 
     507 2.8959106e-05   -796.69472            0   -796.69472    13415.858 
     508 3.1743244e-05   -796.69472            0   -796.69472    13415.843 
     509 3.4633726e-05   -796.69473            0   -796.69472    13415.827 
     510 3.7626692e-05   -796.69473            0   -796.69473    13415.811 
     511 4.0718232e-05   -796.69473            0   -796.69473    13415.794 
     512 4.3904199e-05   -796.69473            0   -796.69473    13415.777 
     513 4.7180421e-05   -796.69473            0   -796.69473    13415.759 
     514 5.054246e-05   -796.69473            0   -796.69473     13415.74 
     515 5.3985939e-05   -796.69473            0   -796.69473    13415.721 
     516 5.7506085e-05   -796.69474            0   -796.69473    13415.701 
     517 6.109846e-05   -796.69474            0   -796.69474     13415.68 
     518 6.4757745e-05   -796.69474            0   -796.69474    13415.659 
     519 6.8479982e-05   -796.69474            0   -796.69474    13415.637 
     520 7.2258373e-05   -796.69474            0   -796.69474    13415.615 
     521 7.6092741e-05   -796.69474            0   -796.69474     13415.59 
     522 7.9973778e-05   -796.69474            0   -796.69474    13415.569 
     523 8.3955225e-05   -796.69475            0   -796.69475    13415.539 
     524 8.8247539e-05   -796.69475            0   -796.69475     13415.53 
     525 9.5040567e-05   -796.69475            0   -796.69475    13415.461 
     526 0.00011132907   -796.69475            0   -796.69475    13415.548 
     527 6.6672975e-05   -796.69475            0   -796.69475     13415.42 
     528 1.0833706e-05   -796.69475            0   -796.69475    13415.451 
     529 6.6631901e-06   -796.69475            0   -796.69475    13415.448 
     530 7.6920793e-06   -796.69475            0   -796.69475    13415.441 
     531 8.8558184e-06   -796.69475            0   -796.69475    13415.434 
     532 1.0095624e-05   -796.69475            0   -796.69475    13415.425 
     533 1.1409866e-05   -796.69476            0   -796.69475    13415.417 
     534 1.279684e-05   -796.69476            0   -796.69476    13415.408 
     535 1.4254737e-05   -796.69476            0   -796.69476    13415.398 
     536 1.578165e-05   -796.69476            0   -796.69476    13415.388 
     537 1.7375577e-05   -796.69476            0   -796.69476    13415.377 
     538 1.9034421e-05   -796.69476            0   -796.69476    13415.365 
     539 2.0755992e-05   -796.69476            0   -796.69476    13415.354 
     540 2.2538013e-05   -796.69476            0   -796.69476    13415.341 
     541 2.4378121e-05   -796.69476            0   -796.69476    13415.328 
     542 2.627387e-05   -796.69476            0   -796.69476    13415.315 
     543 2.8222731e-05   -796.69476            0   -796.69476    13415.301 
     544 3.0222101e-05   -796.69476            0   -796.69476    13415.287 
     545 3.2269301e-05   -796.69476            0   -796.69476    13415.272 
     546 3.436158e-05   -796.69476            0   -796.69476    13415.256 
     547 3.6496122e-05   -796.69477            0   -796.69477    13415.241 
     548 3.8670042e-05   -796.69477            0   -796.69477    13415.224 
     549 4.0880398e-05   -796.69477            0   -796.69477    13415.208 
     550 4.3124187e-05   -796.69477            0   -796.69477     13415.19 
     551 4.5398348e-05   -796.69477            0   -796.69477    13415.173 
     552 4.7699784e-05   -796.69477            0   -796.69477    13415.155 
     553 5.002531e-05   -796.69477            0   -796.69477    13415.136 
     554 5.2371796e-05   -796.69477            0   -796.69477    13415.117 
     555 5.4735785e-05   -796.69477            0   -796.69477    13415.098 
     556 5.7114489e-05   -796.69477            0   -796.69477    13415.077 
     557 5.9502129e-05   -796.69477            0   -796.69477    13415.058 
     558 6.1893736e-05   -796.69478            0   -796.69477    13415.034 
     559 6.419145e-05   -796.69478            0   -796.69478    13415.026 
     560 6.5054283e-05   -796.69478            0   -796.69478    13414.964 
     561 3.4889437e-05   -796.69478            0   -796.69478     13415.02 
     562 1.4071285e-06   -796.69478            0   -796.69478    13415.006 
     563 1.5300287e-06   -796.69478            0   -796.69478    13414.993 
     564 1.5889461e-06   -796.69478            0   -796.69478    13414.984 
     565 1.8097458e-06   -796.69478            0   -796.69478    13414.978 
     566 2.1837931e-06   -796.69478            0   -796.69478    13414.973 
     567 2.6295037e-06   -796.69478            0   -796.69478    13414.969 
     568 3.1195894e-06   -796.69478            0   -796.69478    13414.965 
     569 3.649749e-06   -796.69478            0   -796.69478     13414.96 
     570 4.2190779e-06   -796.69478            0   -796.69478    13414.955 
     571 4.8268351e-06   -796.69478            0   -796.69478    13414.949 
     572 5.4722322e-06   -796.69478            0   -796.69478    13414.943 
     573 6.1544286e-06   -796.69478            0   -796.69478    13414.937 
     574 6.8725323e-06   -796.69478            0   -796.69478     13414.93 
     575 7.625601e-06   -796.69478            0   -796.69478    13414.923 
     576 8.4126433e-06   -796.69478            0   -796.69478    13414.916 
     577 9.2326199e-06   -796.69478            0   -796.69478    13414.908 
     578 1.0084445e-05   -796.69478            0   -796.69478      13414.9 
     579 1.0966986e-05   -796.69478            0   -796.69478    13414.892 
     580 1.1879067e-05   -796.69478            0   -796.69478    13414.883 
     581 1.2819471e-05   -796.69478            0   -796.69478    13414.874 
     582 1.3786937e-05   -796.69478            0   -796.69478    13414.864 
     583 1.4780165e-05   -796.69478            0   -796.69478    13414.854 
     584 1.5797817e-05   -796.69478            0   -796.69478    13414.844 
     585 1.6838517e-05   -796.69478            0   -796.69478    13414.834 
     586 1.7900856e-05   -796.69478            0   -796.69478    13414.823 
     587 1.8983389e-05   -796.69478            0   -796.69478    13414.811 
     588 2.008464e-05   -796.69478            0   -796.69478      13414.8 
     589 2.1203105e-05   -796.69478            0   -796.69478    13414.788 
     590 2.2337245e-05   -796.69478            0   -796.69478    13414.776 
     591 2.3485496e-05   -796.69478            0   -796.69478    13414.764 
     592 2.464627e-05   -796.69478            0   -796.69478    13414.751 
     593 2.5817956e-05   -796.69478            0   -796.69478    13414.738 
     594 2.6998912e-05   -796.69479            0   -796.69478    13414.724 
     595 2.8187495e-05   -796.69479            0   -796.69478    13414.711 
     596 2.9381999e-05   -796.69479            0   -796.69478    13414.697 
     597 3.0580805e-05   -796.69479            0   -796.69479    13414.683 
     598 3.1781999e-05   -796.69479            0   -796.69479    13414.668 
     599  3.29842e-05   -796.69479            0   -796.69479    13414.653 
     600 3.4182408e-05   -796.69479            0   -796.69479    13414.639 
     601 3.5349468e-05   -796.69479            0   -796.69479    13414.622 
     602 3.6020801e-05   -796.69479            0   -796.69479    13414.616 
     603 2.9671552e-05   -796.69479            0   -796.69479    13414.572 
     604 2.2792381e-06   -796.69479            0   -796.69479    13414.586 
     605 1.8457996e-06   -796.69479            0   -796.69479     13414.59 
     606 1.8161063e-06   -796.69479            0   -796.69479    13414.587 
     607 2.0873782e-06   -796.69479            0   -796.69479    13414.583 
     608 2.3763008e-06   -796.69479            0   -796.69479    13414.579 
     609 2.6823565e-06   -796.69479            0   -796.69479    13414.575 
     610 3.005124e-06   -796.69479            0   -796.69479    13414.571 
     611 3.3441818e-06   -796.69479            0   -796.69479    13414.567 
     612 3.6990799e-06   -796.69479            0   -796.69479    13414.562 
     613 4.0693482e-06   -796.69479            0   -796.69479    13414.557 
     614 4.4544932e-06   -796.69479            0   -796.69479    13414.552 
     615 4.854001e-06   -796.69479            0   -796.69479    13414.546 
     616 5.2673359e-06   -796.69479            0   -796.69479    13414.541 
     617 5.693943e-06   -796.69479            0   -796.69479    13414.535 
     618 6.1332468e-06   -796.69479            0   -796.69479    13414.529 
     619 6.5846539e-06   -796.69479            0   -796.69478    13414.522 
     620 7.0475513e-06   -796.69478            0   -796.69478    13414.516 
     621 7.5213102e-06   -796.69478            0   -796.69478    13414.509 
     622 8.0052824e-06   -796.69478            0   -796.69478    13414.502 
     623 8.4988077e-06   -796.69478            0   -796.69478    13414.495 
     624 9.0012023e-06   -796.69478            0   -796.69478    13414.487 
     625 9.5117819e-06   -796.69478            0   -796.69478     13414.48 
     626 1.0029812e-05   -796.69478            0   -796.69478    13414.472 
     627 1.0554583e-05   -796.69478            0   -796.69478    13414.464 
     628 1.1085038e-05   -796.69478            0   -796.69478    13414.455 
     629 1.1619237e-05   -796.69478            0   -796.69478    13414.447 
     630 1.214481e-05   -796.69478            0   -796.69478    13414.438 
     631 1.2573906e-05   -796.69478            0   -796.69478    13414.431 
     632 1.2155901e-05   -796.69478            0   -796.69478    13414.418 
     633 7.0309506e-06   -796.69478            0   -796.69478     13414.42 
     634 6.6408949e-07   -796.69478            0   -796.69478    13414.414 
     635 8.3719271e-07   -796.69478            0   -796.69478    13414.411 
     636 9.6718629e-07   -796.69478            0   -796.69478    13414.409 
     637 1.1192767e-06   -796.69478            0   -796.69478    13414.406 
     638 1.2817181e-06   -796.69478            0   -796.69478    13414.404 
     639 1.4542955e-06   -796.69478            0   -796.69478    13414.401 
     640 1.6367814e-06   -796.69478            0   -796.69478    13414.398 
     641 1.8289353e-06   -796.69478            0   -796.69478    13414.394 
     642 2.0305027e-06   -796.69478            0   -796.69478    13414.391 
     643 2.2412158e-06   -796.69478            0   -796.69478    13414.387 
     644 2.4607935e-06   -796.69478            0   -796.69478    13414.384 
     645 2.6889422e-06   -796.69478            0   -796.69478     13414.38 
     646 2.9253556e-06   -796.69478            0   -796.69478    13414.376 
     647 3.1697154e-06   -796.69478            0   -796.69478    13414.371 
     648 3.4216916e-06   -796.69478            0   -796.69478    13414.367 
     649 3.6809426e-06   -796.69478            0   -796.69478    13414.362 
     650 3.9471161e-06   -796.69478            0   -796.69478    13414.358 
     651 4.2198491e-06   -796.69478            0   -796.69478    13414.353 
     652 4.4987684e-06   -796.69478            0   -796.69478    13414.348 
     653 4.7834911e-06   -796.69478            0   -796.69478    13414.342 
     654 5.0736246e-06   -796.69478            0   -796.69478    13414.337 
     655 5.368768e-06   -796.69478            0   -796.69478    13414.331 
     656 5.6685111e-06   -796.69478            0   -796.69478    13414.326 
     657 5.9724368e-06   -796.69478            0   -796.69478     13414.32 
     658 6.2801175e-06   -796.69478            0   -796.69478    13414.314 
     659 6.5911242e-06   -796.69478            0   -796.69478    13414.308 
     660 6.904997e-06   -796.69478            0   -796.69478    13414.302 
     661 7.2212617e-06   -796.69478            0   -796.69478    13414.295 
     662 7.5388278e-06   -796.69477            0   -796.69477    13414.289 
     663 7.8523403e-06   -796.69477            0   -796.69477    13414.282 
     664 8.1061914e-06   -796.69477            0   -796.69477    13414.275 
     665 7.7265102e-06   -796.69477            0   -796.69477    13414.271 
     666 3.5044917e-06   -796.69477            0   -796.69477    13414.261 
     667 1.1064379e-07   -796.69477            0   -796.69477    13414.262 
     668 1.7708794e-07   -796.69477            0   -796.69477    13414.262 
     669 2.4890275e-07   -796.69477            0   -796.69477    13414.262 
     670 3.1127957e-07   -796.69477            0   -796.69477    13414.261 
     671 3.7593939e-07   -796.69477            0   -796.69477     13414.26 
     672 4.4628436e-07   -796.69477            0   -796.69477    13414.258 
     673 5.223731e-07   -796.69477            0   -796.69477    13414.256 
     674 6.0409847e-07   -796.69477            0   -796.69477    13414.255 
     675 6.9135323e-07   -796.69477            0   -796.69477    13414.253 
     676 7.8402309e-07   -796.69477            0   -796.69477    13414.251 
     677 8.8198612e-07   -796.69477            0   -796.69477    13414.249 
     678 9.8511289e-07   -796.69477            0   -796.69477    13414.247 
     679 1.0932667e-06   -796.69477            0   -796.69477    13414.244 
     680 1.2063035e-06   -796.69477            0   -796.69477    13414.242 
     681 1.3240725e-06   -796.69477            0   -796.69477    13414.239 
     682 1.4464157e-06   -796.69477            0   -796.69477    13414.236 
     683 1.5731689e-06   -796.69477            0   -796.69477    13414.234 
     684 1.7041609e-06   -796.69477            0   -796.69477    13414.231 
     685 1.8392147e-06   -796.69477            0   -796.69477    13414.227 
     686 1.978147e-06   -796.69477            0   -796.69477    13414.224 
     687 2.1207687e-06   -796.69477            0   -796.69477    13414.221 
     688 2.2668849e-06   -796.69477            0   -796.69477    13414.218 
     689 2.4162955e-06   -796.69477            0   -796.69477    13414.214 
     690 2.5687949e-06   -796.69477            0   -796.69477     13414.21 
     691 2.724173e-06   -796.69477            0   -796.69477    13414.207 
     692 2.8822144e-06   -796.69477            0   -796.69477    13414.203 
     693 3.0426996e-06   -796.69477            0   -796.69477    13414.199 
     694 3.2054047e-06   -796.69476            0   -796.69476    13414.195 
     695 3.3701016e-06   -796.69476            0   -796.69476    13414.191 
     696 3.5365586e-06   -796.69476            0   -796.69476    13414.187 
     697 3.7045403e-06   -796.69476            0   -796.69476    13414.182 
     698 3.8738091e-06   -796.69476            0   -796.69476    13414.178 
     699 4.0441196e-06   -796.69476            0   -796.69476    13414.174 
     700 4.2152397e-06   -796.69476            0   -796.69476    13414.169 
     701 4.3868784e-06   -796.69476            0   -796.69476    13414.164 
     702 4.5589229e-06   -796.69476            0   -796.69476     13414.16 
     703 4.7303878e-06   -796.69476            0   -796.69476    13414.155 
     704 4.9005654e-06   -796.69476            0   -796.69476     13414.15 
     705 5.0226099e-06   -796.69476            0   -796.69476    13414.147 
     706 4.5224417e-06   -796.69476            0   -796.69476    13414.135 
     707 6.2781414e-07   -796.69476            0   -796.69476     13414.14 
     708 2.6990177e-07   -796.69476            0   -796.69476    13414.139 
     709 3.0639854e-07   -796.69476            0   -796.69476    13414.138 
     710 3.4991694e-07   -796.69476            0   -796.69476    13414.137 
     711 3.9620778e-07   -796.69476            0   -796.69476    13414.136 
     712 4.4509604e-07   -796.69475            0   -796.69475    13414.134 
     713 4.9653127e-07   -796.69475            0   -796.69475    13414.133 
     714 5.5043811e-07   -796.69475            0   -796.69475    13414.131 
     715 6.0674931e-07   -796.69475            0   -796.69475     13414.13 
     716 6.653873e-07   -796.69475            0   -796.69475    13414.128 
     717 7.2627632e-07   -796.69475            0   -796.69475    13414.126 
     718 7.8933297e-07   -796.69475            0   -796.69475    13414.124 
     719 8.5447501e-07   -796.69475            0   -796.69475    13414.123 
     720 9.2161244e-07   -796.69475            0   -796.69475    13414.121 
     721 9.9065813e-07   -796.69475            0   -796.69475    13414.119 
     722 1.0615143e-06   -796.69475            0   -796.69475    13414.116 
     723 1.1340919e-06   -796.69475            0   -796.69475    13414.114 
     724 1.2082808e-06   -796.69475            0   -796.69475    13414.112 
     725 1.2840001e-06   -796.69475            0   -796.69475     13414.11 
     726 1.3611055e-06   -796.69475            0   -796.69475    13414.107 
     727 1.439563e-06   -796.69475            0   -796.69475    13414.105 
     728 1.5190527e-06   -796.69475            0   -796.69475    13414.102 
     729 1.599633e-06   -796.69475            0   -796.69475      13414.1 
     730 1.6788307e-06   -796.69475            0   -796.69475    13414.098 
     731 1.7493902e-06   -796.69475            0   -796.69475    13414.094 
     732 1.7359326e-06   -796.69475            0   -796.69475    13414.094 
     733 1.2651603e-06   -796.69474            0   -796.69474    13414.087 
     734 2.4570236e-07   -796.69474            0   -796.69474    13414.089 
     735 1.5556413e-07   -796.69474            0   -796.69474    13414.089 
     736 1.8066143e-07   -796.69474            0   -796.69474    13414.088 
     737 2.0765781e-07   -796.69474            0   -796.69474    13414.087 
     738 2.3640182e-07   -796.69474            0   -796.69474    13414.086 
     739 2.6684939e-07   -796.69474            0   -796.69474    13414.085 
     740 2.9896254e-07   -796.69474            0   -796.69474    13414.084 
     741 3.326989e-07   -796.69474            0   -796.69474    13414.083 
     742 3.6801481e-07   -796.69474            0   -796.69474    13414.082 
     743 4.0486384e-07   -796.69474            0   -796.69474    13414.081 
     744 4.4319783e-07   -796.69474            0   -796.69474    13414.079 
     745 4.8296623e-07   -796.69474            0   -796.69474    13414.078 
     746 5.2411673e-07   -796.69474            0   -796.69474    13414.077 
     747 5.6659481e-07   -796.69474            0   -796.69474    13414.075 
     748 6.103444e-07   -796.69474            0   -796.69474    13414.074 
     749 6.5530714e-07   -796.69474            0   -796.69474    13414.072 
     750 7.0142368e-07   -796.69474            0   -796.69474    13414.071 
     751 7.486318e-07   -796.69474            0   -796.69474    13414.069 
     752 7.9686977e-07   -796.69474            0   -796.69474    13414.067 
     753 8.4607056e-07   -796.69474            0   -796.69474    13414.066 
     754 8.9617302e-07   -796.69474            0   -796.69474    13414.064 
     755 9.4709923e-07   -796.69474            0   -796.69474    13414.062 
     756 9.9880306e-07   -796.69474            0   -796.69474     13414.06 
     757 1.0511494e-06   -796.69474            0   -796.69474    13414.058 
     758 1.1041585e-06   -796.69473            0   -796.69473    13414.056 
     759 1.1569543e-06   -796.69473            0   -796.69473    13414.055 
     760 1.207208e-06   -796.69473            0   -796.69473    13414.052 
     761 1.2218478e-06   -796.69473            0   -796.69473    13414.051 
     762 9.7271647e-07   -796.69473            0   -796.69473    13414.048 
     763 1.6198794e-07   -796.69473            0   -796.69473    13414.048 
     764 9.3187871e-08   -796.69473            0   -796.69473    13414.048 
     765 1.0735899e-07   -796.69473            0   -796.69473    13414.048 
     766 1.2383582e-07   -796.69473            0   -796.69473    13414.047 
     767 1.4142903e-07   -796.69473            0   -796.69473    13414.046 
     768 1.6009658e-07   -796.69473            0   -796.69473    13414.046 
     769 1.7981701e-07   -796.69473            0   -796.69473    13414.045 
     770 2.0056426e-07   -796.69473            0   -796.69473    13414.044 
     771 2.2231249e-07   -796.69473            0   -796.69473    13414.043 
     772 2.450336e-07   -796.69473            0   -796.69473    13414.043 
     773 2.6869885e-07   -796.69473            0   -796.69473    13414.042 
     774 2.9327768e-07   -796.69473            0   -796.69473    13414.041 
     775 3.1873883e-07   -796.69473            0   -796.69473     13414.04 
     776 3.4504931e-07   -796.69473            0   -796.69473    13414.039 
     777 3.7217565e-07   -796.69473            0   -796.69473    13414.038 
     778 4.0008239e-07   -796.69473            0   -796.69473    13414.037 
     779 4.2873439e-07   -796.69473            0   -796.69473    13414.036 
     780 4.5809331e-07   -796.69473            0   -796.69473    13414.035 
     781 4.881237e-07   -796.69473            0   -796.69473    13414.033 
     782 5.1878199e-07   -796.69472            0   -796.69472    13414.032 
     783 5.5003777e-07   -796.69472            0   -796.69472    13414.031 
     784 5.8182781e-07   -796.69472            0   -796.69472     13414.03 
     785 6.1414786e-07   -796.69472            0   -796.69472    13414.029 
     786 6.4676934e-07   -796.69472            0   -796.69472    13414.027 
     787 6.7948501e-07   -796.69472            0   -796.69472    13414.026 
     788 7.0790519e-07   -796.69472            0   -796.69472    13414.024 
     789 7.0506519e-07   -796.69472            0   -796.69472    13414.024 
     790 4.5973609e-07   -796.69472            0   -796.69472    13414.022 
     791 5.9346207e-08   -796.69472            0   -796.69472    13414.022 
     792  4.57713e-08   -796.69472            0   -796.69472    13414.022 
     793 4.953508e-08   -796.69472            0   -796.69472    13414.022 
     794 5.864566e-08   -796.69472            0   -796.69472    13414.022 
     795 6.8584851e-08   -796.69472            0   -796.69472    13414.021 
     796 7.9259044e-08   -796.69472            0   -796.69472    13414.021 
     797 9.0655177e-08   -796.69472            0   -796.69472     13414.02 
     798 1.0275941e-07   -796.69472            0   -796.69472     13414.02 
     799 1.1555697e-07   -796.69472            0   -796.69472    13414.019 
     800 1.2903222e-07   -796.69472            0   -796.69472    13414.019 
     801 1.4316863e-07   -796.69472            0   -796.69472    13414.018 
     802 1.5794885e-07   -796.69472            0   -796.69472    13414.018 
     803 1.7335471e-07   -796.69472            0   -796.69472    13414.017 
     804 1.8936727e-07   -796.69472            0   -796.69472    13414.017 
     805 2.0596679e-07   -796.69472            0   -796.69472    13414.016 
     806 2.2313284e-07   -796.69472            0   -796.69472    13414.015 
     807 2.4084428e-07   -796.69471            0   -796.69471    13414.015 
     808 2.5907929e-07   -796.69471            0   -796.69471    13414.014 
     809 2.7781543e-07   -796.69471            0   -796.69471    13414.013 
     810 2.9702967e-07   -796.69471            0   -796.69471    13414.012 
     811 3.1669841e-07   -796.69471            0   -796.69471    13414.012 
     812 3.3679754e-07   -796.69471            0   -796.69471    13414.011 
     813 3.5730245e-07   -796.69471            0   -796.69471     13414.01 
     814 3.7818816e-07   -796.69471            0   -796.69471    13414.009 
     815 3.9942912e-07   -796.69471            0   -796.69471    13414.008 
     816 4.2099989e-07   -796.69471            0   -796.69471    13414.007 
     817 4.4287349e-07   -796.69471            0   -796.69471    13414.007 
     818 4.6502618e-07   -796.69471            0   -796.69471    13414.006 
     819 4.8742283e-07   -796.69471            0   -796.69471    13414.005 
     820 5.100571e-07   -796.69471            0   -796.69471    13414.004 
     821 5.3275827e-07   -796.69471            0   -796.69471    13414.003 
     822 5.5511069e-07   -796.69471            0   -796.69471    13414.002 
     823 5.6728198e-07    -796.6947            0    -796.6947    13414.002 
     824 4.7054825e-07    -796.6947            0    -796.6947    13413.998 
     825 5.1999597e-08    -796.6947            0    -796.6947        13414 
     826 3.5210064e-08    -796.6947            0    -796.6947        13414 
     827 3.8317632e-08    -796.6947            0    -796.6947        13414 
     828 4.4501137e-08    -796.6947            0    -796.6947        13414 
     829 5.1158374e-08    -796.6947            0    -796.6947        13414 
     830 5.8248179e-08    -796.6947            0    -796.6947    13413.999 
     831 6.5764542e-08    -796.6947            0    -796.6947    13413.999 
     832 7.3697559e-08    -796.6947            0    -796.6947    13413.999 
     833 8.2038875e-08    -796.6947            0    -796.6947    13413.998 
     834 9.0778468e-08    -796.6947            0    -796.6947    13413.998 
     835 9.9906769e-08    -796.6947            0    -796.6947    13413.998 
     836 1.0941296e-07    -796.6947            0    -796.6947    13413.997 
     837 1.1928665e-07    -796.6947            0    -796.6947    13413.997 
     838 1.2951605e-07    -796.6947            0    -796.6947    13413.997 
     839 1.4009026e-07    -796.6947            0    -796.6947    13413.996 
     840 1.5099623e-07    -796.6947            0    -796.6947    13413.996 
     841 1.622233e-07    -796.6947            0    -796.6947    13413.995 
     842 1.7375586e-07    -796.6947            0    -796.6947    13413.995 
     843 1.8558609e-07    -796.6947            0    -796.6947    13413.995 
     844 1.9768875e-07    -796.6947            0    -796.6947    13413.994 
     845 2.100675e-07    -796.6947            0    -796.6947    13413.994 
     846 2.2262265e-07    -796.6947            0    -796.6947    13413.993 
     847 2.3526414e-07    -796.6947            0    -796.6947    13413.993 
     848 2.4628015e-07    -796.6947            0    -796.6947    13413.992 
     849 2.4670706e-07   -796.69469            0   -796.69469    13413.992 
     850 1.7970931e-07   -796.69469            0   -796.69469    13413.992 
     851 3.6294421e-08   -796.69469            0   -796.69469    13413.992 
     852 2.3033821e-08   -796.69469            0   -796.69469    13413.991 
     853 2.7132697e-08   -796.69469            0   -796.69469    13413.991 
     854 3.1587974e-08   -796.69469            0   -796.69469    13413.991 
     855 3.6363929e-08   -796.69469            0   -796.69469    13413.991 
     856 4.1456137e-08   -796.69469            0   -796.69469    13413.991 
     857 4.6858849e-08   -796.69469            0   -796.69469    13413.991 
     858 5.2566428e-08   -796.69469            0   -796.69469     13413.99 
     859 5.8572688e-08   -796.69469            0   -796.69469     13413.99 
     860 6.4871272e-08   -796.69469            0   -796.69469     13413.99 
     861 7.1455404e-08   -796.69469            0   -796.69469     13413.99 
     862 7.8318124e-08   -796.69469            0   -796.69469     13413.99 
     863 8.5452073e-08   -796.69469            0   -796.69469    13413.989 
     864 9.2849769e-08   -796.69469            0   -796.69469    13413.989 
     865 1.0050329e-07   -796.69469            0   -796.69469    13413.989 
     866 1.0840475e-07   -796.69469            0   -796.69469    13413.989 
     867 1.165456e-07   -796.69469            0   -796.69469    13413.988 
     868 1.2491785e-07   -796.69469            0   -796.69469    13413.988 
     869 1.3351189e-07   -796.69469            0   -796.69469    13413.988 
     870 1.4232073e-07   -796.69469            0   -796.69469    13413.988 
     871 1.5133086e-07   -796.69469            0   -796.69469    13413.987 
     872 1.6054104e-07   -796.69469            0   -796.69469    13413.987 
     873 1.6990546e-07   -796.69469            0   -796.69469    13413.987 
     874 1.7939182e-07   -796.69469            0   -796.69469    13413.987 
     875 1.8813525e-07   -796.69469            0   -796.69469    13413.986 
     876 1.9089222e-07   -796.69468            0   -796.69468    13413.986 
     877 1.4382871e-07   -796.69468            0   -796.69468    13413.985 
     878 2.1672376e-08   -796.69468            0   -796.69468    13413.986 
     879 1.4742731e-08   -796.69468            0   -796.69468    13413.986 
     880 1.6642487e-08   -796.69468            0   -796.69468    13413.986 
     881 1.9619565e-08   -796.69468            0   -796.69468    13413.986 
     882 2.2832209e-08   -796.69468            0   -796.69468    13413.986 
     883 2.6276886e-08   -796.69468            0   -796.69468    13413.986 
     884 2.9950081e-08   -796.69468            0   -796.69468    13413.985 
     885 3.3848226e-08   -796.69468            0   -796.69468    13413.985 
     886 3.7967468e-08   -796.69468            0   -796.69468    13413.985 
     887 4.2303777e-08   -796.69468            0   -796.69468    13413.985 
     888 4.6852892e-08   -796.69468            0   -796.69468    13413.985 
     889 5.1610373e-08   -796.69468            0   -796.69468    13413.985 
     890 5.6571572e-08   -796.69468            0   -796.69468    13413.985 
     891 6.1731684e-08   -796.69468            0   -796.69468    13413.985 
     892 6.7085699e-08   -796.69468            0   -796.69468    13413.985 
     893 7.2628495e-08   -796.69468            0   -796.69468    13413.985 
     894 7.8354725e-08   -796.69468            0   -796.69468    13413.984 
     895 8.4259027e-08   -796.69468            0   -796.69468    13413.984 
     896 9.0335683e-08   -796.69468            0   -796.69468    13413.984 
     897  9.65793e-08   -796.69468            0   -796.69468    13413.984 
     898 1.0298343e-07   -796.69468            0   -796.69468    13413.984 
     899 1.0954356e-07   -796.69468            0   -796.69468    13413.984 
     900 1.1624956e-07   -796.69468            0   -796.69468    13413.984 
     901 1.2310142e-07   -796.69468            0   -796.69468    13413.984 
     902 1.3004458e-07   -796.69468            0   -796.69468    13413.983 
     903 1.3697781e-07   -796.69468            0   -796.69468    13413.984 
     904 1.4176406e-07   -796.69468            0   -796.69468    13413.982 
     905 1.0844417e-07   -796.69467            0   -796.69467    13413.985 
     906 1.1253507e-08   -796.69467            0   -796.69467    13413.984 
     907 8.6348719e-09   -796.69467            0   -796.69467    13413.983 
     908 8.3349684e-09   -796.69467            0   -796.69467    13413.983 
     909 1.0045765e-08   -796.69467            0   -796.69467    13413.983 
     910 1.2032561e-08   -796.69467            0   -796.69467    13413.983 
     911 1.4193477e-08   -796.69467            0   -796.69467    13413.983 
     912 1.6526288e-08   -796.69467            0   -796.69467    13413.983 
     913 1.9028902e-08   -796.69467            0   -796.69467    13413.983 
     914 2.1699089e-08   -796.69467            0   -796.69467    13413.983 
     915 2.4534464e-08   -796.69467            0   -796.69467    13413.983 
     916 2.7532501e-08   -796.69467            0   -796.69467    13413.983 
     917 3.0690528e-08   -796.69467            0   -796.69467    13413.983 
     918 3.4005742e-08   -796.69467            0   -796.69467    13413.983 
     919 3.7475204e-08   -796.69467            0   -796.69467    13413.983 
     920 4.1095858e-08   -796.69467            0   -796.69467    13413.983 
     921 4.4864521e-08   -796.69467            0   -796.69467    13413.983 
     922 4.8777906e-08   -796.69467            0   -796.69467    13413.983 
     923 5.2832614e-08   -796.69467            0   -796.69467    13413.983 
     924 5.7025153e-08   -796.69467            0   -796.69467    13413.983 
     925 6.1351931e-08   -796.69467            0   -796.69467    13413.983 
     926 6.5809289e-08   -796.69467            0   -796.69467    13413.983 
     927 7.0393459e-08   -796.69467            0   -796.69467    13413.983 
     928 7.5100672e-08   -796.69467            0   -796.69467    13413.983 
     929 7.9926945e-08   -796.69467            0   -796.69467    13413.983 
     930 8.4868608e-08   -796.69467            0   -796.69467    13413.983 
     931 8.9920979e-08   -796.69467            0   -796.69467    13413.983 
     932 9.5081803e-08   -796.69467            0   -796.69467    13413.983 
     933  1.00341e-07   -796.69467            0   -796.69467    13413.983 
     934 1.0571322e-07   -796.69467            0   -796.69467    13413.983 
     935 1.1115615e-07   -796.69467            0   -796.69467    13413.983 
     936  1.10076e-07   -796.69466            0   -796.69466    13413.985 
     937 2.251726e-08   -796.69466            0   -796.69466    13413.983 
     938 7.9307682e-09   -796.69466            0   -796.69466    13413.983 
     939 9.2152169e-09   -796.69466            0   -796.69466    13413.983 
     940 1.082374e-08   -796.69466            0   -796.69466    13413.983 
     941 1.2561283e-08   -796.69466            0   -796.69466    13413.983 
     942 1.4423058e-08   -796.69466            0   -796.69466    13413.983 
     943 1.6407488e-08   -796.69466            0   -796.69466    13413.983 
     944 1.8512904e-08   -796.69466            0   -796.69466    13413.983 
     945 2.0737645e-08   -796.69466            0   -796.69466    13413.984 
     946 2.3079897e-08   -796.69466            0   -796.69466    13413.984 
     947 2.5537814e-08   -796.69466            0   -796.69466    13413.984 
     948 2.8109404e-08   -796.69466            0   -796.69466    13413.984 
     949 3.0792665e-08   -796.69466            0   -796.69466    13413.984 
     950 3.3585422e-08   -796.69466            0   -796.69466    13413.984 
     951 3.6485559e-08   -796.69466            0   -796.69466    13413.984 
     952 3.9490665e-08   -796.69466            0   -796.69466    13413.984 
     953 4.2598605e-08   -796.69466            0   -796.69466    13413.984 
     954 4.5806361e-08   -796.69466            0   -796.69466    13413.984 
     955 4.911173e-08   -796.69466            0   -796.69466    13413.984 
     956 5.250687e-08   -796.69466            0   -796.69466    13413.984 
     957 5.5977582e-08   -796.69466            0   -796.69466    13413.984 
     958 5.9411499e-08   -796.69466            0   -796.69466    13413.984 
     959 6.190245e-08   -796.69466            0   -796.69466    13413.985 
     960 4.9953343e-08   -796.69466            0   -796.69466    13413.983 
     961 1.0384569e-08   -796.69466            0   -796.69466    13413.984 
     962 5.5579435e-09   -796.69466            0   -796.69466    13413.985 
     963 6.5214348e-09   -796.69466            0   -796.69466    13413.985 
     964 7.7402168e-09   -796.69466            0   -796.69466    13413.985 
     965 9.0610834e-09   -796.69466            0   -796.69466    13413.985 
     966 1.0482493e-08   -796.69466            0   -796.69466    13413.985 
     967 1.2003357e-08   -796.69466            0   -796.69466    13413.985 
     968 1.3622532e-08   -796.69466            0   -796.69466    13413.985 
     969 1.5338802e-08   -796.69466            0   -796.69466    13413.985 
     970 1.7150879e-08   -796.69466            0   -796.69466    13413.985 
     971 1.9057407e-08   -796.69466            0   -796.69466    13413.985 
     972 2.1056961e-08   -796.69466            0   -796.69466    13413.985 
     973 2.3148052e-08   -796.69466            0   -796.69466    13413.985 
     974 2.532913e-08   -796.69466            0   -796.69466    13413.985 
     975 2.7598583e-08   -796.69465            0   -796.69465    13413.985 
     976 2.9954746e-08   -796.69465            0   -796.69465    13413.986 
     977 3.2395891e-08   -796.69465            0   -796.69465    13413.986 
     978 3.4920249e-08   -796.69465            0   -796.69465    13413.986 
     979 3.7525967e-08   -796.69465            0   -796.69465    13413.986 
     980 4.0211112e-08   -796.69465            0   -796.69465    13413.986 
     981 4.2973235e-08   -796.69465            0   -796.69465    13413.986 
     982 4.5807512e-08   -796.69465            0   -796.69465    13413.986 
     983 4.869191e-08   -796.69465            0   -796.69465    13413.986 
     984 5.1471448e-08   -796.69465            0   -796.69465    13413.987 
     985 5.2512273e-08   -796.69465            0   -796.69465    13413.986 
     986 3.3289471e-08   -796.69465            0   -796.69465    13413.988 
     987 4.2294615e-09   -796.69465            0   -796.69465    13413.987 
     988 3.3611155e-09   -796.69465            0   -796.69465    13413.987 
     989 3.7218198e-09   -796.69465            0   -796.69465    13413.987 
     990 4.5383035e-09   -796.69465            0   -796.69465    13413.987 
     991 5.4456612e-09   -796.69465            0   -796.69465    13413.987 
     992 6.4337305e-09   -796.69465            0   -796.69465    13413.987 
     993 7.5018193e-09   -796.69465            0   -796.69465    13413.987 
     994 8.6491757e-09   -796.69465            0   -796.69465    13413.987 
     995 9.874991e-09   -796.69465            0   -796.69465    13413.987 
     996  1.11784e-08   -796.69465            0   -796.69465    13413.987 
     997 1.2558482e-08   -796.69465            0   -796.69465    13413.987 
     998 1.4014262e-08   -796.69465            0   -796.69465    13413.988 
     999 1.5544715e-08   -796.69465            0   -796.69465    13413.988 
    1000 1.7148763e-08   -796.69465            0   -796.69465    13413.988 
    1001 1.8825279e-08   -796.69465            0   -796.69465    13413.988 
    1002 2.0573089e-08   -796.69465            0   -796.69465    13413.988 
    1003 2.2390974e-08   -796.69465            0   -796.69465    13413.988 
    1004 2.4277668e-08   -796.69465            0   -796.69465    13413.988 
    1005 2.6231865e-08   -796.69465            0   -796.69465    13413.988 
    1006 2.8252218e-08   -796.69465            0   -796.69465    13413.988 
    1007 3.0337342e-08   -796.69465            0   -796.69465    13413.989 
    1008 3.2485809e-08   -796.69465            0   -796.69465    13413.989 
    1009 3.469617e-08   -796.69465            0   -796.69465    13413.989 
    1010 3.6966912e-08   -796.69465            0   -796.69465    13413.989 
    1011 3.9296552e-08   -796.69465            0   -796.69465    13413.989 
    1012 4.1683339e-08   -796.69465            0   -796.69465     13413.99 
    1013 4.412544e-08   -796.69464            0   -796.69464     13413.99 
    1014 4.6614334e-08   -796.69464            0   -796.69464     13413.99 
    1015 4.9088282e-08   -796.69464            0   -796.69464     13413.99 
    1016 5.0617831e-08   -796.69464            0   -796.69464     13413.99 
    1017 3.2752546e-08   -796.69464            0   -796.69464    13413.992 
    1018 9.7854491e-10   -796.69464            0   -796.69464    13413.991 
    1019 1.2860545e-09   -796.69464            0   -796.69464    13413.991 
    1020 1.4606848e-09   -796.69464            0   -796.69464    13413.991 
[...]
    1984 4.3501332e-05   -796.65887            0   -796.65887    13364.666 
    1985 5.5958921e-06   -796.65887            0   -796.65887    13364.646 
    1986 6.5732534e-06   -796.65887            0   -796.65887    13364.631 
    1987 7.8571528e-06   -796.65886            0   -796.65886    13364.615 
    1988 9.2546552e-06   -796.65886            0   -796.65886    13364.597 
    1989 1.0758432e-05   -796.65886            0   -796.65886    13364.577 
    1990 1.2367344e-05   -796.65886            0   -796.65886    13364.556 
    1991 1.4078258e-05   -796.65886            0   -796.65886    13364.534 
    1992 1.5889113e-05   -796.65885            0   -796.65885     13364.51 
    1993 1.7796695e-05   -796.65885            0   -796.65885    13364.485 
    1994 1.9798656e-05   -796.65885            0   -796.65885    13364.458 
    1995 2.1891325e-05   -796.65885            0   -796.65885    13364.429 
    1996 2.4072496e-05   -796.65884            0   -796.65884      13364.4 
    1997 2.6337427e-05   -796.65884            0   -796.65884    13364.369 
    1998 2.8685358e-05   -796.65884            0   -796.65884    13364.336 
    1999 3.110789e-05   -796.65884            0   -796.65884    13364.302 
    2000 3.3612375e-05   -796.65883            0   -796.65883    13364.267 
    2001 3.6174347e-05   -796.65883            0   -796.65883    13364.229 
    2002 3.8868919e-05   -796.65883            0   -796.65883    13364.194 
    2003 4.1703621e-05   -796.65882            0   -796.65882    13364.145 
    2004 4.6426989e-05   -796.65882            0   -796.65882    13364.132 
    2005 5.807136e-05   -796.65882            0   -796.65882    13364.029 
    2006 3.5347569e-05   -796.65882            0   -796.65881    13364.085 
    2007 5.2305247e-06   -796.65881            0   -796.65881    13364.054 
    2008 3.4116715e-06   -796.65881            0   -796.65881    13364.042 
    2009 4.1526175e-06   -796.65881            0   -796.65881     13364.03 
    2010 4.9915261e-06   -796.65881            0   -796.65881    13364.017 
    2011 5.904188e-06   -796.65881            0   -796.65881    13364.003 
    2012 6.8886909e-06   -796.65881            0   -796.65881    13363.987 
    2013 7.9437011e-06   -796.65881            0   -796.65881     13363.97 
    2014 9.0675577e-06   -796.65881            0   -796.65881    13363.952 
    2015 1.0258622e-05   -796.65881            0   -796.65881    13363.933 
    2016 1.1515059e-05    -796.6588            0    -796.6588    13363.913 
    2017 1.2835028e-05    -796.6588            0    -796.6588    13363.892 
    2018 1.4216495e-05    -796.6588            0    -796.6588    13363.869 
    2019 1.5657471e-05    -796.6588            0    -796.6588    13363.845 
    2020 1.7155694e-05    -796.6588            0    -796.6588     13363.82 
    2021 1.870914e-05    -796.6588            0    -796.6588    13363.794 
    2022 2.0315148e-05   -796.65879            0   -796.65879    13363.766 
    2023 2.1972124e-05   -796.65879            0   -796.65879    13363.738 
    2024   2.3676e-05   -796.65879            0   -796.65879    13363.708 
    2025 2.5428438e-05   -796.65879            0   -796.65879    13363.678 
    2026 2.7217486e-05   -796.65879            0   -796.65879    13363.646 
    2027 2.9076626e-05   -796.65878            0   -796.65878    13363.615 
    2028 3.0992149e-05   -796.65878            0   -796.65878    13363.575 
    2029 3.3950782e-05   -796.65878            0   -796.65878    13363.562 
    2030 4.0795355e-05   -796.65878            0   -796.65878    13363.474 
    2031 1.6032206e-05   -796.65878            0   -796.65878    13363.514 
    2032 2.4433615e-06   -796.65878            0   -796.65878    13363.498 
    2033 2.5919563e-06   -796.65878            0   -796.65878    13363.489 
    2034 3.1174412e-06   -796.65878            0   -796.65878    13363.479 
    2035 3.6908248e-06   -796.65877            0   -796.65877    13363.468 
    2036 4.3094883e-06   -796.65877            0   -796.65877    13363.455 
    2037 4.9727895e-06   -796.65877            0   -796.65877    13363.442 
    2038 5.6795815e-06   -796.65877            0   -796.65877    13363.428 
    2039 6.4289074e-06   -796.65877            0   -796.65877    13363.413 
    2040 7.2195585e-06   -796.65877            0   -796.65877    13363.397 
    2041 8.0504414e-06   -796.65877            0   -796.65877    13363.381 
    2042 8.9202128e-06   -796.65877            0   -796.65877    13363.363 
    2043 9.8277216e-06   -796.65877            0   -796.65877    13363.344 
    2044 1.0771412e-05   -796.65877            0   -796.65877    13363.325 
    2045 1.1750255e-05   -796.65877            0   -796.65877    13363.304 
    2046 1.2762152e-05   -796.65877            0   -796.65876    13363.283 
    2047 1.3806987e-05   -796.65876            0   -796.65876    13363.261 
    2048 1.4880297e-05   -796.65876            0   -796.65876    13363.238 
    2049 1.5987727e-05   -796.65876            0   -796.65876    13363.214 
    2050 1.711074e-05   -796.65876            0   -796.65876    13363.188 
    2051 1.8308136e-05   -796.65876            0   -796.65876    13363.167 
    2052 1.9529228e-05   -796.65876            0   -796.65876    13363.127 
    2053 2.0748703e-05   -796.65876            0   -796.65876    13363.142 
    2054 7.3332473e-06   -796.65876            0   -796.65876    13363.102 
    2055 1.5856885e-06   -796.65876            0   -796.65876    13363.102 
    2056 1.6659885e-06   -796.65876            0   -796.65876    13363.094 
    2057 2.0058575e-06   -796.65876            0   -796.65876    13363.086 
    2058 2.3756403e-06   -796.65876            0   -796.65876    13363.077 
    2059 2.7749719e-06   -796.65876            0   -796.65876    13363.068 
    2060 3.2030896e-06   -796.65876            0   -796.65876    13363.057 
    2061 3.6594296e-06   -796.65876            0   -796.65876    13363.046 
    2062 4.1432609e-06   -796.65875            0   -796.65875    13363.035 
    2063 4.6539043e-06   -796.65875            0   -796.65875    13363.022 
    2064 5.190559e-06   -796.65875            0   -796.65875    13363.009 
    2065 5.7524788e-06   -796.65875            0   -796.65875    13362.995 
    2066 6.3387689e-06   -796.65875            0   -796.65875     13362.98 
    2067 6.9486679e-06   -796.65875            0   -796.65875    13362.965 
    2068 7.5811201e-06   -796.65875            0   -796.65875    13362.949 
    2069 8.2355145e-06   -796.65875            0   -796.65875    13362.932 
    2070 8.9102898e-06   -796.65875            0   -796.65875    13362.914 
    2071 9.6058021e-06   -796.65875            0   -796.65875    13362.896 
    2072 1.031768e-05   -796.65875            0   -796.65875    13362.877 
    2073 1.1051756e-05   -796.65875            0   -796.65875    13362.859 
    2074 1.1774683e-05   -796.65875            0   -796.65875    13362.836 
    2075 1.2461762e-05   -796.65875            0   -796.65875    13362.824 
    2076 1.1985394e-05   -796.65875            0   -796.65875    13362.784 
    2077 4.5667254e-06   -796.65875            0   -796.65875      13362.8 
    2078 8.3423862e-07   -796.65875            0   -796.65875    13362.789 
    2079 8.1684052e-07   -796.65875            0   -796.65875    13362.783 
    2080 1.0015786e-06   -796.65875            0   -796.65875    13362.778 
    2081 1.2117071e-06   -796.65875            0   -796.65875    13362.771 
    2082 1.4408908e-06   -796.65875            0   -796.65875    13362.765 
    2083 1.6887968e-06   -796.65875            0   -796.65875    13362.758 
    2084 1.9550559e-06   -796.65875            0   -796.65875     13362.75 
    2085 2.2392737e-06   -796.65875            0   -796.65875    13362.741 
    2086 2.5410281e-06   -796.65875            0   -796.65875    13362.732 
    2087 2.8598726e-06   -796.65875            0   -796.65875    13362.723 
    2088 3.1953358e-06   -796.65875            0   -796.65875    13362.713 
    2089 3.5469244e-06   -796.65875            0   -796.65875    13362.702 
    2090 3.9141233e-06   -796.65875            0   -796.65875    13362.691 
    2091 4.2963986e-06   -796.65875            0   -796.65875    13362.679 
    2092 4.693197e-06   -796.65875            0   -796.65875    13362.667 
    2093 5.1039521e-06   -796.65875            0   -796.65875    13362.654 
    2094 5.5280783e-06   -796.65875            0   -796.65875     13362.64 
    2095 5.9649883e-06   -796.65875            0   -796.65875    13362.627 
    2096 6.4140628e-06   -796.65875            0   -796.65875    13362.612 
    2097 6.8747311e-06   -796.65875            0   -796.65875    13362.597 
    2098 7.3462719e-06   -796.65875            0   -796.65875    13362.582 
    2099 7.8283782e-06   -796.65875            0   -796.65875    13362.566 
    2100 8.3195073e-06   -796.65875            0   -796.65875     13362.55 
    2101 8.8223678e-06   -796.65875            0   -796.65875    13362.534 
    2102 9.3283721e-06   -796.65875            0   -796.65875    13362.515 
    2103 9.9194639e-06   -796.65875            0   -796.65875    13362.504 
    2104 1.0829005e-05   -796.65875            0   -796.65875    13362.465 
    2105 4.8514171e-06   -796.65875            0   -796.65875    13362.486 
    2106 2.9614269e-07   -796.65875            0   -796.65875    13362.479 
    2107 2.8511834e-07   -796.65875            0   -796.65875    13362.474 
    2108 3.2580704e-07   -796.65875            0   -796.65875     13362.47 
    2109 4.0943142e-07   -796.65875            0   -796.65875    13362.466 
    2110 5.0848173e-07   -796.65875            0   -796.65875    13362.463 
    2111 6.179959e-07   -796.65875            0   -796.65875    13362.459 
    2112 7.3770301e-07   -796.65875            0   -796.65875    13362.454 
    2113 8.6743538e-07   -796.65875            0   -796.65875    13362.449 
    2114 1.0070011e-06   -796.65875            0   -796.65875    13362.444 
    2115 1.1561955e-06   -796.65875            0   -796.65875    13362.438 
    2116 1.3147993e-06   -796.65875            0   -796.65875    13362.432 
    2117 1.4825804e-06   -796.65875            0   -796.65875    13362.425 
    2118 1.6592935e-06   -796.65875            0   -796.65875    13362.418 
    2119 1.8446822e-06   -796.65875            0   -796.65875    13362.411 
    2120 2.0384785e-06   -796.65875            0   -796.65875    13362.403 
    2121 2.240405e-06   -796.65875            0   -796.65875    13362.395 
    2122 2.4501742e-06   -796.65875            0   -796.65875    13362.387 
    2123 2.6674921e-06   -796.65875            0   -796.65875    13362.378 
    2124 2.8920553e-06   -796.65875            0   -796.65875    13362.369 
    2125  3.12356e-06   -796.65875            0   -796.65875    13362.359 
    2126 3.3616863e-06   -796.65875            0   -796.65875    13362.349 
    2127 3.6061398e-06   -796.65875            0   -796.65875    13362.339 
    2128 3.8565522e-06   -796.65875            0   -796.65875    13362.329 
    2129 4.1127582e-06   -796.65875            0   -796.65875    13362.318 
    2130 4.3739969e-06   -796.65875            0   -796.65875    13362.307 
    2131 4.6414762e-06   -796.65875            0   -796.65875    13362.295 
    2132 4.9105859e-06   -796.65875            0   -796.65875    13362.282 
    2133 5.2102367e-06   -796.65875            0   -796.65875    13362.275 
    2134 5.5581953e-06   -796.65875            0   -796.65875    13362.249 
    2135 2.8895975e-06   -796.65875            0   -796.65875    13362.265 
    2136 8.0030749e-08   -796.65875            0   -796.65875    13362.261 
    2137 1.0268806e-07   -796.65875            0   -796.65875    13362.257 
    2138 1.1667781e-07   -796.65875            0   -796.65875    13362.254 
    2139 1.3842895e-07   -796.65875            0   -796.65875    13362.251 
    2140 1.7590427e-07   -796.65875            0   -796.65875    13362.249 
    2141 2.2282792e-07   -796.65875            0   -796.65875    13362.247 
    2142 2.7566943e-07   -796.65875            0   -796.65875    13362.244 
    2143 3.339151e-07   -796.65875            0   -796.65875    13362.241 
    2144 3.9748599e-07   -796.65875            0   -796.65875    13362.238 
    2145 4.6629112e-07   -796.65875            0   -796.65875    13362.235 
    2146 5.4023053e-07   -796.65875            0   -796.65875    13362.231 
    2147 6.1919714e-07   -796.65876            0   -796.65876    13362.227 
    2148 7.0307673e-07   -796.65876            0   -796.65876    13362.223 
    2149 7.9174847e-07   -796.65876            0   -796.65876    13362.218 
    2150 8.850852e-07   -796.65876            0   -796.65876    13362.213 
    2151 9.8295398e-07   -796.65876            0   -796.65876    13362.208 
    2152 1.0852165e-06   -796.65876            0   -796.65876    13362.203 
    2153 1.1917296e-06   -796.65876            0   -796.65876    13362.198 
    2154 1.3023458e-06   -796.65876            0   -796.65876    13362.192 
    2155 1.4169143e-06   -796.65876            0   -796.65876    13362.186 
    2156 1.5352806e-06   -796.65876            0   -796.65876     13362.18 
    2157 1.657289e-06   -796.65876            0   -796.65876    13362.173 
    2158 1.7827802e-06   -796.65876            0   -796.65876    13362.167 
    2159 1.9115996e-06   -796.65876            0   -796.65876     13362.16 
    2160 2.0435791e-06   -796.65876            0   -796.65876    13362.153 
    2161 2.1785902e-06   -796.65876            0   -796.65876    13362.145 
    2162 2.3163927e-06   -796.65876            0   -796.65876    13362.138 
    2163 2.4571176e-06   -796.65876            0   -796.65876     13362.13 
    2164 2.5996651e-06   -796.65876            0   -796.65876    13362.122 
    2165 2.747866e-06   -796.65876            0   -796.65876    13362.115 
    2166 2.8931315e-06   -796.65876            0   -796.65876    13362.102 
    2167 2.9468041e-06   -796.65876            0   -796.65876    13362.111 
    2168 2.2719885e-07   -796.65876            0   -796.65876    13362.104 
    2169 1.8178404e-07   -796.65876            0   -796.65876    13362.098 
    2170 1.2379471e-07   -796.65876            0   -796.65876    13362.096 
    2171 1.4683176e-07   -796.65876            0   -796.65876    13362.094 
    2172 1.7699576e-07   -796.65876            0   -796.65876    13362.092 
    2173 2.0984379e-07   -796.65876            0   -796.65876     13362.09 
    2174 2.4532948e-07   -796.65877            0   -796.65877    13362.088 
    2175 2.834022e-07   -796.65877            0   -796.65877    13362.085 
    2176 3.2400791e-07   -796.65877            0   -796.65877    13362.083 
    2177 3.6708906e-07   -796.65877            0   -796.65877     13362.08 
    2178 4.1258499e-07   -796.65877            0   -796.65877    13362.077 
    2179 4.6043199e-07   -796.65877            0   -796.65877    13362.074 
    2180 5.1056367e-07   -796.65877            0   -796.65877    13362.071 
    2181 5.6291111e-07   -796.65877            0   -796.65877    13362.067 
    2182 6.1740327e-07   -796.65877            0   -796.65877    13362.063 
    2183 6.7396713e-07   -796.65877            0   -796.65877     13362.06 
    2184 7.3252826e-07   -796.65877            0   -796.65877    13362.056 
    2185 7.9301076e-07   -796.65877            0   -796.65877    13362.052 
    2186 8.5533855e-07   -796.65877            0   -796.65877    13362.048 
    2187 9.1943374e-07   -796.65877            0   -796.65877    13362.043 
    2188 9.8522201e-07   -796.65877            0   -796.65877    13362.039 
    2189 1.0526189e-06   -796.65877            0   -796.65877    13362.034 
    2190 1.1215584e-06   -796.65877            0   -796.65877    13362.029 
    2191 1.1917872e-06   -796.65877            0   -796.65877    13362.025 
    2192 1.2621137e-06   -796.65877            0   -796.65877     13362.02 
    2193 1.3146663e-06   -796.65877            0   -796.65877    13362.014 
    2194 1.1419138e-06   -796.65877            0   -796.65877    13362.011 
    2195 1.7971499e-07   -796.65877            0   -796.65877    13362.008 
    2196 1.7991488e-08   -796.65877            0   -796.65877    13362.007 
    2197 2.8944085e-08   -796.65877            0   -796.65877    13362.007 
    2198 4.0403811e-08   -796.65877            0   -796.65877    13362.006 
    2199 5.2334035e-08   -796.65878            0   -796.65878    13362.005 
    2200 6.5565783e-08   -796.65878            0   -796.65878    13362.004 
    2201 8.0238673e-08   -796.65878            0   -796.65878    13362.003 
    2202 9.633477e-08   -796.65878            0   -796.65878    13362.002 
    2203 1.1383088e-07   -796.65878            0   -796.65878    13362.001 
    2204 1.3270258e-07   -796.65878            0   -796.65878    13361.999 
    2205 1.529235e-07   -796.65878            0   -796.65878    13361.997 
    2206 1.7446547e-07   -796.65878            0   -796.65878    13361.996 
    2207 1.9729862e-07   -796.65878            0   -796.65878    13361.994 
    2208 2.2139148e-07   -796.65878            0   -796.65878    13361.992 
    2209 2.4671107e-07   -796.65878            0   -796.65878     13361.99 
    2210 2.7322309e-07   -796.65878            0   -796.65878    13361.988 
    2211 3.0089202e-07   -796.65878            0   -796.65878    13361.986 
    2212 3.2968127e-07   -796.65878            0   -796.65878    13361.983 
    2213 3.5955335e-07   -796.65878            0   -796.65878    13361.981 
    2214 3.9047004e-07   -796.65878            0   -796.65878    13361.978 
    2215 4.2239259e-07   -796.65878            0   -796.65878    13361.976 
    2216 4.5528193e-07   -796.65878            0   -796.65878    13361.973 
    2217 4.8909883e-07   -796.65878            0   -796.65878     13361.97 
    2218 5.2380436e-07   -796.65878            0   -796.65878    13361.967 
    2219 5.5935942e-07   -796.65878            0   -796.65878    13361.964 
    2220 5.9572715e-07   -796.65878            0   -796.65878    13361.961 
    2221 6.3286529e-07   -796.65878            0   -796.65878    13361.958 
    2222 6.707373e-07   -796.65878            0   -796.65878    13361.955 
    2223 7.0907044e-07   -796.65878            0   -796.65878    13361.952 
    2224 7.451845e-07   -796.65879            0   -796.65878    13361.949 
    2225 7.330133e-07   -796.65879            0   -796.65879    13361.945 
    2226  2.93524e-07   -796.65879            0   -796.65879    13361.944 
    2227 2.8470267e-10   -796.65879            0   -796.65879    13361.944 
Loop time of 427.117 on 24 procs for 727 steps with 127 atoms

98.2% CPU use with 24 MPI tasks x no OpenMP threads

Minimization stats:
  Stopping criterion = energy tolerance
  Energy initial, next-to-last, final = 
        -796.694594428     -796.658786118     -796.658786118
  Force two-norm initial, final = 3.63946e-06 9.1641e-05
  Force max component initial, final = 3.03467e-06 5.42849e-05
  Final line search alpha, max atom move = 0 0
  Iterations, force evaluations = 727 727

MPI task timing breakdown:
Section |  min time  |  avg time  |  max time  |%varavg| %total
---------------------------------------------------------------
Pair    | 172.9      | 311.74     | 422.97     | 409.2 | 72.99
Neigh   | 0          | 0          | 0          |   0.0 |  0.00
Comm    | 0.050744   | 111.28     | 250.12     | 684.9 | 26.05
Output  | 0.12412    | 0.12431    | 0.12498    |   0.0 |  0.03
Modify  | 3.5316     | 3.5346     | 3.5355     |   0.1 |  0.83
Other   |            | 0.4401     |            |       |  0.10

Nlocal:    5.29167 ave 7 max 3 min
Histogram: 4 0 0 0 0 8 0 9 0 3
Nghost:    759.375 ave 801 max 714 min
Histogram: 8 0 0 0 0 6 2 0 0 8
Neighs:    0 ave 0 max 0 min
Histogram: 24 0 0 0 0 0 0 0 0 0
FullNghs:  1068.67 ave 1407 max 612 min
Histogram: 4 0 0 0 4 4 0 9 0 3

Total # of neighbors = 25648
Ave neighs/atom = 201.953
Neighbor list builds = 0
Dangerous builds = 0
Total wall time: 0:22:05
