LAMMPS (12 Dec 2018)
Processor partition = 1
Reading data file ...
  orthogonal box = (0 0 0) to (10.0025 12.3537 10.615)
  2 by 4 by 3 MPI processor grid
  reading atoms ...
  127 atoms
Reading potential file lammps-force.nnp with DATE: 20201105
Reading potential file lammps_rot.nnp with DATE: 20211226
Neighbor list info ...
  update every 1 steps, delay 0 steps, check yes
  max neighbors/atom: 2000, page size: 100000
  master list distance cutoff = 8
  ghost atom cutoff = 8
  binsize = 4, bins = 3 4 3
  2 neighbor lists, perpetual/occasional/extra = 2 0 0
  (1) pair nnp3v, perpetual
      attributes: full, newton on
      pair build: full/bin/atomonly
      stencil: full/bin/3d
      bin: standard
  (2) pair nnp3v_vf, perpetual, copy from (1)
      attributes: full, newton on
      pair build: copy
      stencil: none
      bin: none
Setting up quickmin style minimization ...
  Unit style    : metal
  Current step  : 0
Per MPI rank memory allocation (min/avg/max) = 3.111 | 3.226 | 3.362 Mbytes
Step Temp E_pair E_mol TotEng Press 
       0            0   -796.79482            0   -796.79482    13324.103 
      24   0.66844098   -796.99042            0   -796.97954    13893.519 
Loop time of 14.5897 on 24 procs for 24 steps with 127 atoms

98.2% CPU use with 24 MPI tasks x no OpenMP threads

Minimization stats:
  Stopping criterion = energy tolerance
  Energy initial, next-to-last, final = 
        -796.794816724     -796.990398619     -796.990424995
  Force two-norm initial, final = 1.98977 0.177561
  Force max component initial, final = 0.330078 0.036579
  Final line search alpha, max atom move = 0 0
  Iterations, force evaluations = 24 24

MPI task timing breakdown:
Section |  min time  |  avg time  |  max time  |%varavg| %total
---------------------------------------------------------------
Pair    | 6.0626     | 10.78      | 14.587     |  77.4 | 73.89
Neigh   | 0          | 0          | 0          |   0.0 |  0.00
Comm    | 0.0019102  | 3.8082     | 8.5258     | 130.2 | 26.10
Output  | 0          | 0          | 0          |   0.0 |  0.00
Modify  | 0          | 0          | 0          |   0.0 |  0.00
Other   |            | 0.001244   |            |       |  0.01

Nlocal:    5.29167 ave 7 max 3 min
Histogram: 4 0 0 0 0 9 0 7 0 4
Nghost:    759.125 ave 797 max 714 min
Histogram: 7 1 0 0 0 2 6 0 0 8
Neighs:    0 ave 0 max 0 min
Histogram: 24 0 0 0 0 0 0 0 0 0
FullNghs:  1068 ave 1413 max 614 min
Histogram: 4 0 0 0 5 4 0 7 0 4

Total # of neighbors = 25632
Ave neighs/atom = 201.827
Neighbor list builds = 0
Dangerous builds = 0
Setting up quickmin style minimization ...
  Unit style    : metal
  Current step  : 0
Per MPI rank memory allocation (min/avg/max) = 5.112 | 5.237 | 5.362 Mbytes
Step Temp E_pair E_mol TotEng Press 
       0            0   -796.56454            0   -796.56454    14552.939 
       1    0.2094578   -796.56454            0   -796.56112    14555.717 
       2    1.0231986   -796.57237            0    -796.5557    14561.184 
       3     2.839146   -796.58891            0   -796.54267    14572.946 
       4    6.7476215    -796.6159            0   -796.50601    14598.783 
       5    14.425039   -796.65388            0   -796.41894    14641.533 
       6    25.784603   -796.69887            0   -796.27892    14656.707 
       7    37.021234   -796.74329            0   -796.14033    14551.659 
       8    42.795685    -796.7806            0   -796.08359    14320.594 
       9    44.107746   -796.80875            0   -796.09038    14118.384 
      10    41.731238   -796.82901            0   -796.14934     13981.02 
      11    24.368795   -796.84076            0   -796.44387    13686.107 
      12   0.10427727   -796.84136            0   -796.83967    13363.491 
      13   0.16975167   -796.84218            0   -796.83941    13363.553 
      14   0.28403477   -796.84326            0   -796.83864    13364.353 
      15   0.46059174   -796.84467            0   -796.83717     13366.03 
      16   0.62746346   -796.84631            0   -796.83609    13367.306 
      17   0.76594145   -796.84808            0    -796.8356    13367.633 
      18   0.90953651   -796.84997            0   -796.83516    13367.638 
      19    1.0632646   -796.85197            0   -796.83466    13367.779 
      20    1.2267025   -796.85405            0   -796.83407    13368.319 
      21    1.3997478   -796.85621            0   -796.83342    13369.461 
      22    1.5827174   -796.85844            0   -796.83267    13371.354 
      23    1.7761397   -796.86074            0   -796.83181    13374.103 
      24    1.9807023   -796.86309            0   -796.83083    13377.766 
      25    2.1972238   -796.86548            0    -796.8297    13382.396 
      26    2.4266037   -796.86791            0   -796.82839    13388.033 
      27     2.669791   -796.87036            0   -796.82688    13394.696 
      28    2.9277025   -796.87282            0   -796.82514    13402.389 
      29    3.2012655   -796.87529            0   -796.82316    13411.094 
      30    3.4912545   -796.87776            0    -796.8209    13420.785 
      31    3.7984021   -796.88022            0   -796.81836    13431.413 
      32    4.1231706   -796.88268            0   -796.81553    13442.927 
      33    4.4662092   -796.88513            0   -796.81239    13455.291 
      34     4.826713   -796.88755            0   -796.80894     13468.39 
      35    5.2075348      -796.89            0   -796.80518     13482.36 
      36    5.5938038   -796.89242            0   -796.80131     13496.52 
      37    5.9726634   -796.89474            0   -796.79747    13511.664 
      38    4.8406879   -796.89586            0   -796.81702    13503.518 
      39 0.0023647001   -796.89586            0   -796.89583     13439.35 
      40 0.0095799437   -796.89594            0   -796.89578    13439.365 
      41     0.021782   -796.89609            0   -796.89573    13439.403 
      42  0.037740053   -796.89628            0   -796.89567    13439.533 
      43  0.055355072   -796.89651            0   -796.89561    13439.857 
      44  0.071412165   -796.89675            0   -796.89559     13440.49 
      45  0.081963686   -796.89699            0   -796.89566    13441.487 
      46  0.088557353   -796.89724            0   -796.89579    13442.774 
      47   0.10166276    -796.8975            0   -796.89585     13444.27 
      48   0.12203495   -796.89779            0    -796.8958      13445.9 
      49   0.14578753   -796.89811            0   -796.89574     13447.63 
      50   0.17182302   -796.89845            0   -796.89566     13449.48 
      51   0.19999023   -796.89883            0   -796.89557    13451.465 
      52    0.2302573   -796.89922            0   -796.89547    13453.592 
      53   0.26260747   -796.89964            0   -796.89537    13455.861 
      54   0.29702386   -796.90009            0   -796.89525    13458.269 
      55   0.33348875   -796.90056            0   -796.89513     13460.82 
      56   0.37198258   -796.90105            0   -796.89499    13463.514 
      57   0.41248306   -796.90156            0   -796.89484    13466.344 
      58   0.45496496    -796.9021            0   -796.89469    13469.312 
      59   0.49940074   -796.90265            0   -796.89452    13472.412 
      60   0.54575885   -796.90323            0   -796.89434    13475.645 
      61   0.59400444   -796.90382            0   -796.89415    13479.009 
      62    0.6440979   -796.90443            0   -796.89394    13482.501 
      63   0.69599677   -796.90505            0   -796.89372    13486.118 
      64   0.74965661   -796.90569            0   -796.89348    13489.858 
      65   0.80502293   -796.90634            0   -796.89323    13493.715 
      66   0.86204219   -796.90701            0   -796.89297    13497.689 
      67   0.92064983   -796.90768            0   -796.89268    13501.775 
      68   0.98078177   -796.90836            0   -796.89239    13505.965 
      69    1.0423552   -796.90905            0   -796.89208    13510.254 
      70    1.1053182   -796.90975            0   -796.89175    13514.641 
      71    1.1695207   -796.91046            0   -796.89141    13519.123 
      72     1.234969   -796.91117            0   -796.89105    13523.689 
      73    1.3006722   -796.91188            0    -796.8907    13528.361 
      74    1.3619532   -796.91259            0   -796.89041    13532.968 
      75    1.3382156    -796.9133            0   -796.89151    13536.555 
      76   0.64449905   -796.91372            0   -796.90322    13529.754 
      77 0.0055695865   -796.91375            0   -796.91366    13521.424 
      78 0.0092786597   -796.91381            0   -796.91365    13521.698 
      79  0.015054667   -796.91387            0   -796.91363    13522.107 
      80  0.022753455   -796.91396            0   -796.91359    13522.657 
      81   0.03064941   -796.91405            0   -796.91355    13523.299 
      82  0.038390791   -796.91416            0   -796.91353    13524.002 
      83  0.046627899   -796.91428            0   -796.91352    13524.771 
      84  0.055594462   -796.91441            0    -796.9135    13525.609 
      85  0.065315218   -796.91455            0   -796.91348    13526.519 
      86  0.075783929    -796.9147            0   -796.91346      13527.5 
      87  0.086990697   -796.91486            0   -796.91345    13528.552 
      88  0.098924036   -796.91504            0   -796.91343    13529.676 
      89   0.11157111   -796.91522            0   -796.91341     13530.87 
      90   0.12491824   -796.91542            0   -796.91339    13532.136 
      91   0.13895077   -796.91563            0   -796.91336    13533.471 
      92   0.15365309   -796.91584            0   -796.91334    13534.877 
      93   0.16900854   -796.91607            0   -796.91332    13536.349 
      94   0.18499938    -796.9163            0   -796.91329    13537.888 
      95   0.20160723   -796.91652            0   -796.91324    13539.481 
      96    0.2188071   -796.91675            0   -796.91319    13541.136 
      97   0.23658278   -796.91699            0   -796.91314     13542.85 
      98   0.25490991   -796.91724            0   -796.91309    13544.618 
      99    0.2737659   -796.91749            0   -796.91304    13546.448 
     100   0.29312668   -796.91776            0   -796.91298    13548.339 
     101   0.31296932   -796.91802            0   -796.91293    13550.289 
     102   0.33326327    -796.9183            0   -796.91287    13552.297 
     103    0.3539885   -796.91858            0   -796.91281     13554.36 
     104   0.37510325   -796.91886            0   -796.91275    13556.484 
     105   0.39660305   -796.91915            0   -796.91269    13558.651 
     106   0.41840367   -796.91944            0   -796.91263    13560.896 
     107   0.44059874   -796.91976            0   -796.91259    13563.134 
     108   0.46287892   -796.92008            0   -796.91254    13565.604 
     109   0.48630555   -796.92041            0   -796.91249    13567.592 
     110   0.51092124   -796.92072            0    -796.9124     13571.34 
     111   0.57249764   -796.92109            0   -796.91177    13570.002 
     112   0.85473097   -796.92109            0   -796.90717    13588.796 
     113   0.45897411   -796.92146            0   -796.91398    13571.484 
     114  0.039045763   -796.92151            0   -796.92088    13568.837 
     115  0.029355565   -796.92158            0   -796.92111    13569.411 
     116  0.034002459   -796.92166            0   -796.92111    13570.021 
     117  0.039024032   -796.92175            0   -796.92111    13570.663 
     118  0.044366739   -796.92184            0   -796.92111    13571.338 
     119  0.050022949   -796.92193            0   -796.92111     13572.05 
     120  0.055985814   -796.92202            0   -796.92111    13572.803 
     121  0.062247439   -796.92212            0   -796.92111    13573.597 
     122  0.068799666   -796.92223            0   -796.92111    13574.432 
     123  0.075633814   -796.92234            0   -796.92111    13575.307 
     124  0.082740786   -796.92246            0   -796.92111    13576.223 
     125  0.090110999   -796.92258            0   -796.92111    13577.179 
     126  0.097734442    -796.9227            0   -796.92111    13578.174 
     127   0.10560063   -796.92283            0   -796.92111    13579.207 
     128   0.11369866   -796.92296            0   -796.92111    13580.278 
     129   0.12201723    -796.9231            0   -796.92111    13581.388 
     130   0.13054447   -796.92324            0   -796.92112    13582.533 
     131   0.13926808   -796.92339            0   -796.92112    13583.715 
     132   0.14817551   -796.92354            0   -796.92112    13584.931 
     133   0.15725351   -796.92369            0   -796.92113    13586.182 
     134   0.16648887   -796.92384            0   -796.92113    13587.466 
     135   0.17586724     -796.924            0   -796.92114    13588.783 
     136   0.18537564   -796.92416            0   -796.92114    13590.131 
     137   0.19499488   -796.92432            0   -796.92115    13591.513 
     138   0.20472123   -796.92449            0   -796.92116    13592.914 
     139   0.21450789   -796.92466            0   -796.92117    13594.374 
     140   0.22443896   -796.92483            0   -796.92118    13595.774 
     141   0.23426615     -796.925            0   -796.92119     13597.47 
     142   0.24562485   -796.92518            0   -796.92118    13598.335 
     143   0.26370623   -796.92532            0   -796.92103    13602.269 
     144   0.37340974   -796.92552            0   -796.91944    13597.846 
     145   0.20556299   -796.92552            0   -796.92217    13603.129 
     146  0.017129054   -796.92558            0    -796.9253    13599.387 
     147  0.010982456   -796.92562            0   -796.92544    13599.272 
     148   0.01246549   -796.92565            0   -796.92545    13599.569 
     149   0.01450483   -796.92569            0   -796.92546    13599.923 
     150  0.016697376   -796.92574            0   -796.92546    13600.299 
     151  0.019032233   -796.92578            0   -796.92547    13600.698 
     152  0.021506209   -796.92583            0   -796.92548    13601.122 
     153  0.024115838   -796.92588            0   -796.92549    13601.571 
     154  0.026857497   -796.92593            0   -796.92549    13602.045 
     155  0.029727342   -796.92599            0    -796.9255    13602.545 
     156  0.032721199   -796.92605            0   -796.92551    13603.069 
     157  0.035834768   -796.92611            0   -796.92552    13603.617 
     158   0.03906355   -796.92617            0   -796.92554    13604.189 
     159  0.042402849   -796.92624            0   -796.92555    13604.785 
     160  0.045847777   -796.92631            0   -796.92556    13605.405 
     161  0.049393304   -796.92638            0   -796.92557    13606.046 
     162   0.05303412   -796.92645            0   -796.92559     13606.71 
     163  0.056764808   -796.92653            0    -796.9256    13607.397 
     164  0.060579767    -796.9266            0   -796.92562    13608.103 
     165  0.064472911   -796.92668            0   -796.92563    13608.828 
     166  0.068438267   -796.92676            0   -796.92565    13609.573 
     167  0.072470157   -796.92684            0   -796.92566    13610.337 
     168  0.076562025   -796.92692            0   -796.92568    13611.119 
     169  0.080707715   -796.92701            0   -796.92569     13611.92 
     170  0.084900293   -796.92709            0   -796.92571    13612.738 
     171  0.089134259   -796.92718            0   -796.92573    13613.575 
     172  0.093400679   -796.92727            0   -796.92575    13614.428 
     173  0.097696779   -796.92736            0   -796.92577    13615.297 
     174   0.10200543   -796.92746            0    -796.9258    13616.179 
     175   0.10632099   -796.92755            0   -796.92582    13617.079 
     176   0.11042997   -796.92765            0   -796.92585    13617.977 
     177   0.11241875   -796.92774            0   -796.92591    13618.897 
     178  0.091474592   -796.92783            0   -796.92634    13619.259 
     179  0.012688989   -796.92786            0   -796.92765    13618.627 
     180 0.0031755857   -796.92788            0   -796.92782    13618.595 
     181 0.0041217898   -796.92789            0   -796.92783    13618.749 
     182 0.0049410922   -796.92791            0   -796.92783    13618.925 
     183 0.0058154019   -796.92793            0   -796.92784    13619.119 
     184 0.0067565405   -796.92796            0   -796.92785    13619.329 
     185 0.0077631904   -796.92798            0   -796.92785    13619.555 
     186 0.0088339491   -796.92801            0   -796.92786    13619.796 
     187 0.0099672962   -796.92803            0   -796.92787    13620.053 
     188  0.011161597   -796.92806            0   -796.92788    13620.326 
     189  0.012415119   -796.92809            0   -796.92789    13620.613 
     190  0.013726038   -796.92812            0    -796.9279    13620.915 
     191  0.015092438   -796.92816            0   -796.92791    13621.232 
     192  0.016512322   -796.92819            0   -796.92792    13621.563 
     193  0.017983606   -796.92822            0   -796.92793    13621.909 
     194  0.019504107   -796.92826            0   -796.92794    13622.268 
     195  0.021071575    -796.9283            0   -796.92795    13622.641 
     196  0.022683681   -796.92833            0   -796.92796    13623.028 
     197  0.024338033   -796.92837            0   -796.92798    13623.428 
     198  0.026032155   -796.92841            0   -796.92799    13623.841 
     199  0.027763507   -796.92846            0     -796.928    13624.267 
     200  0.029529488    -796.9285            0   -796.92802    13624.705 
     201  0.031327436   -796.92854            0   -796.92803    13625.155 
     202   0.03315464   -796.92859            0   -796.92805    13625.617 
     203  0.035008331   -796.92864            0   -796.92806    13626.091 
     204  0.036885707   -796.92868            0   -796.92808    13626.575 
     205  0.038783893   -796.92873            0    -796.9281     13627.07 
     206  0.040700062   -796.92878            0   -796.92812    13627.576 
     207  0.042631141   -796.92883            0   -796.92814    13628.092 
     208   0.04457453   -796.92888            0   -796.92815    13628.617 
     209  0.046526001   -796.92893            0   -796.92817    13629.152 
     210  0.048483653   -796.92898            0    -796.9282    13629.694 
     211  0.050414982   -796.92904            0   -796.92822    13630.247 
     212  0.052127173   -796.92909            0   -796.92824    13630.796 
     213   0.05094735   -796.92914            0   -796.92831    13631.321 
     214  0.028082198   -796.92919            0   -796.92873    13631.353 
     215 0.0008266511   -796.92919            0   -796.92918    13631.056 
     216 0.0013581856    -796.9292            0   -796.92917    13631.148 
     217 0.0018480404    -796.9292            0   -796.92917    13631.251 
     218 0.0022299081   -796.92921            0   -796.92918    13631.359 
     219 0.0026284755   -796.92923            0   -796.92918    13631.477 
     220 0.0030572376   -796.92924            0   -796.92919    13631.604 
     221 0.0035160909   -796.92925            0   -796.92919     13631.74 
     222 0.0040044362   -796.92927            0    -796.9292    13631.886 
     223 0.0045215825   -796.92928            0   -796.92921    13632.041 
     224 0.0050667936    -796.9293            0   -796.92921    13632.205 
     225 0.0056392916   -796.92931            0   -796.92922    13632.379 
     226  0.006238258   -796.92933            0   -796.92923    13632.562 
     227 0.0068628342   -796.92935            0   -796.92924    13632.754 
     228 0.0075121234   -796.92937            0   -796.92925    13632.954 
     229  0.008185196   -796.92939            0   -796.92925    13633.163 
     230 0.0088810773   -796.92941            0   -796.92926    13633.381 
     231 0.0095987633   -796.92943            0   -796.92927    13633.607 
     232  0.010337217   -796.92945            0   -796.92928    13633.842 
     233  0.011095372   -796.92948            0   -796.92929    13634.084 
     234   0.01187213    -796.9295            0   -796.92931    13634.334 
     235  0.012666367   -796.92952            0   -796.92932    13634.592 
     236  0.013476932   -796.92955            0   -796.92933    13634.858 
     237  0.014302653   -796.92957            0   -796.92934    13635.131 
     238  0.015142337    -796.9296            0   -796.92935     13635.41 
     239  0.015994766   -796.92963            0   -796.92937    13635.697 
     240  0.016858708   -796.92966            0   -796.92938    13635.991 
     241  0.017732916   -796.92968            0    -796.9294    13636.291 
     242  0.018616133   -796.92971            0   -796.92941    13636.598 
     243  0.019507091   -796.92974            0   -796.92943     13636.91 
     244  0.020404473   -796.92977            0   -796.92944    13637.229 
     245  0.021307003    -796.9298            0   -796.92946    13637.553 
     246  0.022212777   -796.92983            0   -796.92947    13637.882 
     247  0.023116499   -796.92987            0   -796.92949    13638.217 
     248  0.023968137    -796.9299            0   -796.92951    13638.553 
     249  0.024214978   -796.92993            0   -796.92953    13638.891 
     250  0.018366755   -796.92996            0   -796.92966    13639.069 
     251 0.0017601786   -796.92996            0   -796.92993    13638.955 
     252 0.0012109536   -796.92997            0   -796.92995    13639.013 
     253 0.0014147271   -796.92998            0   -796.92995     13639.09 
     254 0.0016312937   -796.92998            0   -796.92996    13639.173 
     255 0.0018621235   -796.92999            0   -796.92996    13639.262 
     256 0.0021068944      -796.93            0   -796.92997    13639.356 
     257 0.0023652712   -796.93001            0   -796.92997    13639.457 
     258 0.0026368971   -796.93002            0   -796.92998    13639.563 
     259 0.0029213969   -796.93003            0   -796.92998    13639.675 
     260 0.0032183765   -796.93004            0   -796.92999    13639.792 
     261 0.0035274244   -796.93005            0      -796.93    13639.915 
     262 0.0038481114   -796.93006            0      -796.93    13640.043 
     263 0.0041799924   -796.93008            0   -796.93001    13640.176 
     264 0.0045226062   -796.93009            0   -796.93002    13640.315 
     265 0.0048754766    -796.9301            0   -796.93002    13640.459 
     266 0.0052381132   -796.93012            0   -796.93003    13640.608 
     267  0.005610012   -796.93013            0   -796.93004    13640.761 
     268 0.0059906565   -796.93014            0   -796.93005     13640.92 
     269 0.0063795182   -796.93016            0   -796.93006    13641.083 
     270 0.0067760583   -796.93017            0   -796.93006     13641.25 
     271 0.0071797284   -796.93019            0   -796.93007    13641.423 
     272 0.0075899721   -796.93021            0   -796.93008    13641.599 
     273 0.0080062245   -796.93022            0   -796.93009    13641.779 
     274 0.0084279103   -796.93024            0    -796.9301    13641.964 
     275  0.008854448   -796.93026            0   -796.93011    13642.152 
     276 0.0092852436   -796.93027            0   -796.93012    13642.344 
     277 0.0097197132   -796.93029            0   -796.93013     13642.54 
     278  0.010157202   -796.93031            0   -796.93014     13642.74 
     279  0.010596956   -796.93033            0   -796.93016    13642.942 
     280  0.011035715   -796.93035            0   -796.93017    13643.149 
     281  0.011449037   -796.93037            0   -796.93018    13643.351 
     282  0.011554584   -796.93038            0    -796.9302    13643.574 
     283 0.0087283285    -796.9304            0   -796.93026    13643.654 
     284 0.00088184142   -796.93041            0   -796.93039    13643.654 
     285 0.00060362505   -796.93041            0    -796.9304    13643.685 
     286 0.00070445456   -796.93041            0    -796.9304    13643.734 
     287 0.0008122325   -796.93042            0   -796.93041    13643.786 
     288 0.00092712246   -796.93042            0   -796.93041    13643.842 
     289 0.0010489709   -796.93043            0   -796.93041    13643.901 
     290 0.0011776159   -796.93043            0   -796.93042    13643.965 
     291 0.0013128857   -796.93044            0   -796.93042    13644.031 
     292 0.0014545993   -796.93045            0   -796.93042    13644.101 
     293 0.0016025675   -796.93045            0   -796.93043    13644.175 
     294  0.001756592   -796.93046            0   -796.93043    13644.252 
     295 0.0019164662   -796.93047            0   -796.93044    13644.333 
     296 0.0020819756   -796.93048            0   -796.93044    13644.416 
     297 0.0022528981   -796.93048            0   -796.93045    13644.504 
     298 0.0024290041   -796.93049            0   -796.93045    13644.594 
     299 0.0026100574    -796.9305            0   -796.93046    13644.687 
     300 0.0027958149   -796.93051            0   -796.93046    13644.784 
     301 0.0029860272   -796.93052            0   -796.93047    13644.883 
     302 0.0031804393   -796.93053            0   -796.93048    13644.985 
     303 0.0033787906   -796.93054            0   -796.93048    13645.091 
     304 0.0035808157   -796.93055            0   -796.93049    13645.199 
     305 0.0037862442   -796.93056            0   -796.93049    13645.309 
     306  0.003994802   -796.93057            0    -796.9305    13645.423 
     307 0.0042062129   -796.93058            0   -796.93051    13645.539 
     308 0.0044201957   -796.93059            0   -796.93052    13645.657 
     309 0.0046364625    -796.9306            0   -796.93052    13645.778 
     310 0.0048547317   -796.93061            0   -796.93053    13645.901 
     311  0.005074681   -796.93062            0   -796.93054    13646.026 
     312 0.0052959688   -796.93063            0   -796.93055    13646.153 
     313  0.005517103   -796.93064            0   -796.93055    13646.284 
     314 0.0057278703   -796.93065            0   -796.93056    13646.408 
     315  0.005808897   -796.93067            0   -796.93057    13646.561 
     316  0.004621959   -796.93068            0    -796.9306    13646.587 
     317 0.0006129037   -796.93068            0   -796.93067    13646.648 
     318 0.00020906203   -796.93068            0   -796.93068    13646.648 
     319 0.00026139485   -796.93068            0   -796.93068    13646.671 
     320 0.00030860464   -796.93069            0   -796.93068    13646.698 
     321 0.0003593039   -796.93069            0   -796.93068    13646.729 
     322 0.00041362227   -796.93069            0   -796.93069    13646.762 
     323 0.00047148656    -796.9307            0   -796.93069    13646.798 
     324 0.00053282226    -796.9307            0   -796.93069    13646.835 
     325   0.00059755    -796.9307            0   -796.93069    13646.875 
     326 0.00066558585   -796.93071            0   -796.93069    13646.917 
     327 0.0007368414   -796.93071            0    -796.9307    13646.962 
     328 0.00081122392   -796.93071            0    -796.9307    13647.008 
     329 0.00088863648   -796.93072            0    -796.9307    13647.057 
     330 0.00096897809   -796.93072            0   -796.93071    13647.107 
     331 0.0010521438   -796.93073            0   -796.93071     13647.16 
     332 0.0011380251   -796.93073            0   -796.93071    13647.215 
     333 0.0012265096   -796.93074            0   -796.93072    13647.272 
     334 0.0013174817   -796.93074            0   -796.93072    13647.331 
     335 0.0014108224   -796.93075            0   -796.93072    13647.392 
     336 0.0015064096   -796.93075            0   -796.93073    13647.454 
     337 0.0016041185   -796.93076            0   -796.93073    13647.519 
     338 0.0017038214   -796.93076            0   -796.93074    13647.585 
     339  0.001805388   -796.93077            0   -796.93074    13647.653 
     340 0.0019086859   -796.93077            0   -796.93074    13647.723 
     341 0.0020135802   -796.93078            0   -796.93075    13647.794 
     342 0.0021199344   -796.93079            0   -796.93075    13647.867 
     343 0.0022276099   -796.93079            0   -796.93076    13647.941 
     344 0.0023364668    -796.9308            0   -796.93076    13648.017 
     345 0.0024463634   -796.93081            0   -796.93077    13648.094 
     346 0.0025571576   -796.93081            0   -796.93077    13648.173 
     347 0.0026687017   -796.93082            0   -796.93078    13648.253 
     348  0.002780836   -796.93083            0   -796.93078    13648.334 
     349 0.0028931855   -796.93083            0   -796.93079    13648.417 
     350 0.0030033545   -796.93084            0   -796.93079      13648.5 
     351 0.0030837148   -796.93085            0    -796.9308    13648.582 
     352 0.0028131799   -796.93085            0   -796.93081    13648.659 
     353 0.00079987055   -796.93086            0   -796.93085    13648.668 
     354 1.3134529e-05   -796.93086            0   -796.93086    13648.662 
     355 2.3106781e-05   -796.93086            0   -796.93086    13648.669 
     356 3.8038961e-05   -796.93086            0   -796.93086    13648.678 
     357 5.5625251e-05   -796.93086            0   -796.93086    13648.689 
     358 7.3068225e-05   -796.93086            0   -796.93086      13648.7 
     359 9.0902997e-05   -796.93086            0   -796.93086    13648.714 
     360 0.00011016406   -796.93086            0   -796.93086    13648.728 
     361 0.00013114953   -796.93087            0   -796.93086    13648.744 
     362 0.00015387659   -796.93087            0   -796.93086    13648.761 
     363 0.00017831936   -796.93087            0   -796.93087     13648.78 
     364 0.00020444721   -796.93087            0   -796.93087      13648.8 
     365 0.00023222726   -796.93087            0   -796.93087    13648.822 
     366 0.00026162441   -796.93087            0   -796.93087    13648.844 
     367 0.00029260146   -796.93088            0   -796.93087    13648.868 
     368 0.00032511908   -796.93088            0   -796.93087    13648.894 
     369 0.00035913591   -796.93088            0   -796.93088    13648.921 
     370 0.00039460861   -796.93088            0   -796.93088    13648.949 
     371 0.00043149191   -796.93089            0   -796.93088    13648.978 
     372 0.00046973868   -796.93089            0   -796.93088    13649.008 
     373 0.00050930013   -796.93089            0   -796.93088     13649.04 
     374 0.00055012555   -796.93089            0   -796.93089    13649.073 
     375 0.00059216258    -796.9309            0   -796.93089    13649.107 
     376 0.00063535733    -796.9309            0   -796.93089    13649.142 
     377 0.00067965437    -796.9309            0   -796.93089    13649.179 
     378 0.00072499687   -796.93091            0    -796.9309    13649.216 
     379 0.00077132663   -796.93091            0    -796.9309    13649.255 
     380 0.00081858418   -796.93091            0    -796.9309    13649.294 
     381 0.00086670884   -796.93092            0    -796.9309    13649.335 
     382 0.00091563461   -796.93092            0   -796.93091    13649.376 
     383 0.00096530212   -796.93092            0   -796.93091    13649.418 
     384 0.0010156453   -796.93093            0   -796.93091    13649.461 
     385 0.0010666073   -796.93093            0   -796.93091    13649.505 
     386 0.0011181069   -796.93093            0   -796.93091     13649.55 
     387 0.0011701129   -796.93094            0   -796.93092    13649.595 
     388 0.0012224781   -796.93094            0   -796.93092    13649.642 
     389 0.0012753355   -796.93094            0   -796.93092    13649.688 
     390 0.0013281097   -796.93095            0   -796.93092    13649.738 
     391 0.0013823019   -796.93095            0   -796.93093     13649.78 
     392 0.0014349721   -796.93095            0   -796.93093    13649.851 
     393 0.0015160966   -796.93096            0   -796.93093    13649.819 
     394 0.0017878131   -796.93096            0   -796.93093    13650.178 
     395 0.0028433189   -796.93097            0   -796.93092    13649.449 
     396 0.00010631405   -796.93097            0   -796.93096    13649.571 
     397 0.00011035655   -796.93097            0   -796.93096    13649.733 
     398 8.3101415e-05   -796.93096            0   -796.93096    13649.863 
     399 5.1607999e-05   -796.93096            0   -796.93096    13649.935 
     400 4.5720411e-05   -796.93096            0   -796.93096    13649.965 
     401 5.2753513e-05   -796.93096            0   -796.93096    13649.979 
     402 6.2540817e-05   -796.93097            0   -796.93096    13649.989 
     403  7.32489e-05   -796.93097            0   -796.93096    13649.999 
     404 8.4744243e-05   -796.93097            0   -796.93097     13650.01 
     405 9.701936e-05   -796.93097            0   -796.93097    13650.022 
     406 0.00011006158   -796.93097            0   -796.93097    13650.035 
     407 0.00012385494   -796.93097            0   -796.93097    13650.048 
     408 0.00013838221   -796.93097            0   -796.93097    13650.062 
     409 0.00015362517   -796.93097            0   -796.93097    13650.077 
     410 0.00016956466   -796.93097            0   -796.93097    13650.093 
     411 0.00018618063   -796.93097            0   -796.93097     13650.11 
     412 0.00020345212   -796.93097            0   -796.93097    13650.127 
     413 0.00022135731   -796.93098            0   -796.93097    13650.145 
     414 0.00023987356   -796.93098            0   -796.93097    13650.163 
     415 0.00025897743   -796.93098            0   -796.93097    13650.183 
     416 0.0002786447   -796.93098            0   -796.93097    13650.203 
     417 0.00029885041   -796.93098            0   -796.93098    13650.223 
     418 0.00031956886   -796.93098            0   -796.93098    13650.245 
     419 0.00034077375   -796.93098            0   -796.93098    13650.267 
     420 0.00036243813   -796.93098            0   -796.93098    13650.289 
     421 0.00038453445   -796.93099            0   -796.93098    13650.313 
     422 0.00040703459   -796.93099            0   -796.93098    13650.336 
     423 0.0004299099   -796.93099            0   -796.93098    13650.361 
     424 0.00045313126   -796.93099            0   -796.93098    13650.386 
     425 0.00047666906   -796.93099            0   -796.93098    13650.411 
     426 0.00050049334   -796.93099            0   -796.93098    13650.437 
     427 0.00052457371   -796.93099            0   -796.93099    13650.464 
     428 0.00054887946     -796.931            0   -796.93099     13650.49 
     429 0.00057337967     -796.931            0   -796.93099    13650.518 
     430 0.0005980428     -796.931            0   -796.93099    13650.546 
     431 0.00062283729     -796.931            0   -796.93099    13650.574 
     432 0.00064772089     -796.931            0   -796.93099    13650.602 
     433  0.000672575     -796.931            0   -796.93099    13650.632 
     434 0.0006961278     -796.931            0   -796.93099    13650.659 
     435 0.00070203144   -796.93101            0   -796.93099    13650.696 
     436 0.00050711291   -796.93101            0     -796.931    13650.693 
     437 2.8654974e-05   -796.93101            0   -796.93101    13650.707 
     438 3.9291658e-05   -796.93101            0   -796.93101    13650.717 
     439  4.46762e-05   -796.93101            0   -796.93101    13650.723 
     440 5.0805546e-05   -796.93101            0   -796.93101    13650.731 
     441 5.7303617e-05   -796.93101            0   -796.93101    13650.739 
     442 6.4156774e-05   -796.93101            0   -796.93101    13650.747 
     443 7.1355565e-05   -796.93101            0   -796.93101    13650.756 
     444 7.8891187e-05   -796.93101            0   -796.93101    13650.765 
     445 8.6754109e-05   -796.93101            0   -796.93101    13650.775 
     446 9.4934548e-05   -796.93101            0   -796.93101    13650.785 
     447 0.0001034222   -796.93101            0   -796.93101    13650.796 
     448 0.00011220643   -796.93101            0   -796.93101    13650.807 
     449 0.00012127617   -796.93101            0   -796.93101    13650.818 
     450   0.00013062   -796.93101            0   -796.93101     13650.83 
     451 0.00014022615   -796.93101            0   -796.93101    13650.842 
     452 0.00015008245   -796.93101            0   -796.93101    13650.855 
     453 0.00016017646   -796.93101            0   -796.93101    13650.868 
     454 0.00017049531   -796.93101            0   -796.93101    13650.881 
     455 0.00018102606   -796.93102            0   -796.93101    13650.895 
     456 0.00019175487   -796.93102            0   -796.93101    13650.909 
     457 0.00020266828   -796.93102            0   -796.93101    13650.923 
     458 0.00021374758   -796.93102            0   -796.93101    13650.938 
     459 0.0002249676   -796.93102            0   -796.93101    13650.953 
     460 0.00023620625   -796.93102            0   -796.93101    13650.969 
     461 0.00024687181   -796.93102            0   -796.93101    13650.982 
     462 0.00025253092   -796.93102            0   -796.93101    13651.004 
     463 0.00022488328   -796.93102            0   -796.93101    13651.001 
     464 9.0646318e-05   -796.93102            0   -796.93102    13651.036 
     465 1.3229597e-05   -796.93102            0   -796.93102    13651.026 
     466 1.7336378e-05   -796.93102            0   -796.93102    13651.027 
     467 2.0330768e-05   -796.93102            0   -796.93102    13651.031 
     468 2.3577531e-05   -796.93102            0   -796.93102    13651.035 
     469 2.7050225e-05   -796.93102            0   -796.93102     13651.04 
     470 3.0744159e-05   -796.93102            0   -796.93102    13651.045 
     471 3.4654812e-05   -796.93102            0   -796.93102    13651.051 
     472 3.8777336e-05   -796.93102            0   -796.93102    13651.057 
     473 4.3106621e-05   -796.93102            0   -796.93102    13651.063 
     474 4.7637278e-05   -796.93102            0   -796.93102    13651.069 
     475 5.2363661e-05   -796.93102            0   -796.93102    13651.076 
     476 5.7279863e-05   -796.93102            0   -796.93102    13651.083 
     477 6.2379729e-05   -796.93102            0   -796.93102     13651.09 
     478 6.7656864e-05   -796.93102            0   -796.93102    13651.098 
     479 7.310464e-05   -796.93102            0   -796.93102    13651.106 
     480 7.8716201e-05   -796.93102            0   -796.93102    13651.114 
     481 8.4484479e-05   -796.93102            0   -796.93102    13651.122 
     482 9.0402196e-05   -796.93102            0   -796.93102    13651.131 
     483 9.6461878e-05   -796.93102            0   -796.93102     13651.14 
     484 0.00010265586   -796.93102            0   -796.93102    13651.149 
     485 0.0001089763   -796.93102            0   -796.93102    13651.159 
     486 0.00011541505   -796.93102            0   -796.93102    13651.168 
     487 0.00012196407   -796.93102            0   -796.93102    13651.178 
     488 0.00012861493   -796.93102            0   -796.93102    13651.189 
     489 0.00013535945   -796.93102            0   -796.93102    13651.199 
     490 0.00014218847   -796.93102            0   -796.93102    13651.209 
     491 0.00014909449   -796.93102            0   -796.93102     13651.22 
     492 0.00015606581   -796.93102            0   -796.93102    13651.231 
     493 0.00016310037   -796.93102            0   -796.93102    13651.242 
     494 0.00017016639   -796.93102            0   -796.93102    13651.254 
     495 0.00017728178   -796.93102            0   -796.93102    13651.263 
     496 0.00018393976   -796.93102            0   -796.93102    13651.282 
     497 0.00018706654   -796.93102            0   -796.93102    13651.268 
     498 0.00014890765   -796.93102            0   -796.93102    13651.351 
     499 1.8504689e-05   -796.93102            0   -796.93102    13651.303 
     500 1.1778727e-05   -796.93102            0   -796.93102    13651.299 
     501 1.3235319e-05   -796.93102            0   -796.93102    13651.302 
     502 1.5109755e-05   -796.93102            0   -796.93102    13651.305 
     503 1.7100322e-05   -796.93102            0   -796.93102    13651.309 
     504 1.9204072e-05   -796.93102            0   -796.93102    13651.312 
     505 2.1417271e-05   -796.93102            0   -796.93102    13651.316 
     506 2.3737556e-05   -796.93102            0   -796.93102     13651.32 
     507 2.616183e-05   -796.93102            0   -796.93102    13651.324 
     508  2.86872e-05   -796.93102            0   -796.93102    13651.328 
     509 3.1310409e-05   -796.93102            0   -796.93102    13651.332 
     510 3.4028256e-05   -796.93102            0   -796.93102    13651.337 
     511 3.6837244e-05   -796.93102            0   -796.93102    13651.342 
     512 3.9733935e-05   -796.93102            0   -796.93102    13651.347 
     513 4.2714563e-05   -796.93102            0   -796.93102    13651.352 
     514 4.5775523e-05   -796.93102            0   -796.93102    13651.357 
     515 4.891272e-05   -796.93102            0   -796.93102    13651.362 
     516 5.2122535e-05   -796.93102            0   -796.93102    13651.368 
     517 5.5400304e-05   -796.93102            0   -796.93102    13651.374 
     518 5.8742931e-05   -796.93102            0   -796.93102     13651.38 
     519 6.2144089e-05   -796.93102            0   -796.93102    13651.386 
     520 6.5603652e-05   -796.93102            0   -796.93102    13651.392 
     521 6.9107759e-05   -796.93102            0   -796.93102    13651.398 
     522 7.2672909e-05   -796.93102            0   -796.93102    13651.403 
     523 7.6240276e-05   -796.93102            0   -796.93102    13651.414 
     524 7.9945228e-05   -796.93102            0   -796.93102     13651.41 
     525 8.3487699e-05   -796.93102            0   -796.93102    13651.444 
     526 8.5613356e-05   -796.93102            0   -796.93102    13651.384 
     527 4.1806884e-05   -796.93102            0   -796.93102    13651.457 
     528 8.0482372e-06   -796.93102            0   -796.93102    13651.435 
     529 6.0327945e-06   -796.93102            0   -796.93102    13651.434 
     530 6.9901502e-06   -796.93102            0   -796.93102    13651.436 
     531 8.0511633e-06   -796.93102            0   -796.93102    13651.438 
     532 9.1819314e-06   -796.93102            0   -796.93102     13651.44 
     533 1.0381138e-05   -796.93102            0   -796.93102    13651.442 
     534 1.1647288e-05   -796.93102            0   -796.93102    13651.445 
     535 1.2978816e-05   -796.93102            0   -796.93102    13651.447 
     536 1.4374064e-05   -796.93102            0   -796.93102     13651.45 
     537 1.5831296e-05   -796.93102            0   -796.93102    13651.453 
     538 1.7348688e-05   -796.93102            0   -796.93101    13651.455 
     539 1.892434e-05   -796.93102            0   -796.93101    13651.458 
     540 2.0556275e-05   -796.93101            0   -796.93101    13651.461 
     541 2.2242439e-05   -796.93101            0   -796.93101    13651.465 
     542 2.3980706e-05   -796.93101            0   -796.93101    13651.468 
     543 2.5768881e-05   -796.93101            0   -796.93101    13651.471 
     544  2.76047e-05   -796.93101            0   -796.93101    13651.475 
     545 2.9485836e-05   -796.93101            0   -796.93101    13651.479 
     546 3.1409897e-05   -796.93101            0   -796.93101    13651.482 
     547 3.3374438e-05   -796.93101            0   -796.93101    13651.486 
     548 3.5376948e-05   -796.93101            0   -796.93101     13651.49 
     549 3.7414877e-05   -796.93101            0   -796.93101    13651.494 
     550 3.9485598e-05   -796.93101            0   -796.93101    13651.498 
     551 4.1586492e-05   -796.93101            0   -796.93101    13651.502 
     552 4.3714765e-05   -796.93101            0   -796.93101    13651.506 
     553 4.5867906e-05   -796.93101            0   -796.93101    13651.511 
     554 4.8042539e-05   -796.93101            0   -796.93101    13651.515 
     555 5.0237591e-05   -796.93101            0   -796.93101    13651.519 
     556 5.2446243e-05   -796.93101            0   -796.93101    13651.524 
     557 5.4688379e-05   -796.93101            0   -796.93101    13651.527 
     558 5.7005923e-05   -796.93101            0   -796.93101    13651.537 
     559 6.062437e-05   -796.93101            0   -796.93101    13651.523 
     560 7.5626181e-05   -796.93101            0     -796.931    13651.587 
     561 7.0945181e-05   -796.93101            0   -796.93101    13651.498 
     562 2.8262324e-06   -796.93101            0   -796.93101    13651.514 
     563 2.483716e-06   -796.93101            0   -796.93101    13651.529 
     564 1.870212e-06   -796.93101            0   -796.93101    13651.538 
     565 1.7394818e-06   -796.93101            0   -796.93101    13651.543 
     566 2.0121065e-06   -796.93101            0   -796.93101    13651.545 
     567 2.4153585e-06   -796.93101            0   -796.93101    13651.546 
     568 2.8666512e-06   -796.93101            0   -796.93101    13651.547 
     569 3.3552602e-06   -796.93101            0   -796.93101    13651.548 
     570 3.8801601e-06   -796.93101            0   -796.93101    13651.549 
     571 4.4407234e-06   -796.93101            0   -796.93101     13651.55 
     572 5.0362595e-06   -796.93101            0   -796.93101    13651.552 
     573 5.666031e-06   -796.93101            0     -796.931    13651.553 
     574 6.3292554e-06     -796.931            0     -796.931    13651.554 
     575 7.0251058e-06     -796.931            0     -796.931    13651.556 
     576 7.7527119e-06     -796.931            0     -796.931    13651.557 
     577 8.5111612e-06     -796.931            0     -796.931    13651.559 
     578 9.2994998e-06     -796.931            0     -796.931     13651.56 
     579 1.0116734e-05     -796.931            0     -796.931    13651.562 
     580 1.096183e-05     -796.931            0     -796.931    13651.564 
     581 1.1833717e-05     -796.931            0     -796.931    13651.565 
     582 1.2731287e-05     -796.931            0     -796.931    13651.567 
     583 1.3653399e-05     -796.931            0     -796.931    13651.569 
     584 1.4598874e-05     -796.931            0     -796.931    13651.571 
     585 1.5566502e-05     -796.931            0     -796.931    13651.573 
     586 1.6555042e-05     -796.931            0     -796.931    13651.575 
     587 1.7563224e-05     -796.931            0     -796.931    13651.577 
     588 1.8589747e-05     -796.931            0     -796.931     13651.58 
     589 1.9633285e-05     -796.931            0     -796.931    13651.582 
     590 2.0692482e-05     -796.931            0     -796.931    13651.584 
     591 2.1765959e-05     -796.931            0     -796.931    13651.586 
     592 2.2852317e-05     -796.931            0     -796.931    13651.588 
     593 2.3950127e-05     -796.931            0     -796.931    13651.591 
     594 2.5057954e-05     -796.931            0     -796.931    13651.593 
     595 2.6174307e-05     -796.931            0     -796.931    13651.595 
     596 2.7297789e-05     -796.931            0     -796.931    13651.598 
     597 2.842663e-05     -796.931            0   -796.93099      13651.6 
     598 2.9560235e-05   -796.93099            0   -796.93099    13651.602 
     599 3.0694103e-05   -796.93099            0   -796.93099    13651.605 
     600 3.1840701e-05   -796.93099            0   -796.93099    13651.606 
     601 3.2995608e-05   -796.93099            0   -796.93099    13651.613 
     602 3.4972375e-05   -796.93099            0   -796.93099    13651.598 
     603 4.2598597e-05   -796.93099            0   -796.93099    13651.657 
     604 7.0682849e-06   -796.93099            0   -796.93099    13651.626 
     605 2.5651824e-06   -796.93099            0   -796.93099    13651.613 
     606 1.6937084e-06   -796.93099            0   -796.93099    13651.614 
     607 1.9455987e-06   -796.93099            0   -796.93099    13651.615 
     608 2.2154983e-06   -796.93099            0   -796.93099    13651.615 
     609 2.5016089e-06   -796.93099            0   -796.93099    13651.616 
     610 2.8034508e-06   -796.93099            0   -796.93099    13651.617 
     611 3.1206732e-06   -796.93099            0   -796.93099    13651.617 
     612 3.4528625e-06   -796.93099            0   -796.93099    13651.618 
     613 3.7996059e-06   -796.93099            0   -796.93099    13651.619 
     614 4.1604583e-06   -796.93099            0   -796.93099    13651.619 
     615 4.5349642e-06   -796.93099            0   -796.93099     13651.62 
     616 4.9226415e-06   -796.93099            0   -796.93099    13651.621 
     617 5.3229973e-06   -796.93099            0   -796.93099    13651.622 
     618 5.7355126e-06   -796.93099            0   -796.93099    13651.622 
     619 6.159661e-06   -796.93099            0   -796.93099    13651.623 
     620 6.5948863e-06   -796.93099            0   -796.93099    13651.624 
     621 7.0406347e-06   -796.93099            0   -796.93099    13651.625 
     622 7.4963078e-06   -796.93099            0   -796.93099    13651.626 
     623 7.961341e-06   -796.93099            0   -796.93098    13651.627 
     624 8.435067e-06   -796.93098            0   -796.93098    13651.627 
     625 8.9169758e-06   -796.93098            0   -796.93098    13651.628 
     626 9.4061973e-06   -796.93098            0   -796.93098    13651.629 
     627 9.902645e-06   -796.93098            0   -796.93098     13651.63 
     628 1.0404616e-05   -796.93098            0   -796.93098    13651.631 
     629 1.0916143e-05   -796.93098            0   -796.93098    13651.631 
     630 1.1440693e-05   -796.93098            0   -796.93098    13651.634 
     631 1.2106297e-05   -796.93098            0   -796.93098    13651.629 
     632 1.3685748e-05   -796.93098            0   -796.93098    13651.648 
     633 1.6816803e-05   -796.93098            0   -796.93098     13651.61 
     634 3.3226472e-06   -796.93098            0   -796.93098    13651.629 
     635 1.0190687e-06   -796.93098            0   -796.93098    13651.635 
     636 9.0875582e-07   -796.93098            0   -796.93098    13651.636 
     637 1.051936e-06   -796.93098            0   -796.93098    13651.636 
     638 1.204931e-06   -796.93098            0   -796.93098    13651.636 
     639 1.3675337e-06   -796.93098            0   -796.93098    13651.636 
     640 1.5395324e-06   -796.93098            0   -796.93098    13651.636 
     641 1.720711e-06   -796.93098            0   -796.93098    13651.637 
     642 1.9108386e-06   -796.93098            0   -796.93098    13651.637 
     643 2.1096727e-06   -796.93098            0   -796.93098    13651.637 
     644 2.3169583e-06   -796.93098            0   -796.93098    13651.638 
     645 2.5324292e-06   -796.93098            0   -796.93098    13651.638 
     646 2.7558069e-06   -796.93098            0   -796.93098    13651.638 
     647 2.9868022e-06   -796.93098            0   -796.93098    13651.639 
     648 3.2251147e-06   -796.93098            0   -796.93098    13651.639 
     649 3.4704333e-06   -796.93098            0   -796.93098    13651.639 
     650 3.7224364e-06   -796.93098            0   -796.93098     13651.64 
     651 3.9807926e-06   -796.93097            0   -796.93097     13651.64 
     652 4.2451602e-06   -796.93097            0   -796.93097     13651.64 
     653 4.515189e-06   -796.93097            0   -796.93097    13651.641 
     654 4.7905177e-06   -796.93097            0   -796.93097    13651.641 
     655 5.0707795e-06   -796.93097            0   -796.93097    13651.641 
     656 5.3555923e-06   -796.93097            0   -796.93097    13651.642 
     657 5.6445802e-06   -796.93097            0   -796.93097    13651.642 
     658 5.9373264e-06   -796.93097            0   -796.93097    13651.642 
     659 6.2334867e-06   -796.93097            0   -796.93097    13651.643 
     660 6.5325157e-06   -796.93097            0   -796.93097    13651.643 
     661 6.8344696e-06   -796.93097            0   -796.93097    13651.643 
     662 7.138504e-06   -796.93097            0   -796.93097    13651.644 
     663 7.4546793e-06   -796.93097            0   -796.93097    13651.642 
     664 7.8483842e-06   -796.93097            0   -796.93097    13651.648 
     665 9.1204504e-06   -796.93097            0   -796.93097    13651.632 
     666 1.118363e-05   -796.93097            0   -796.93097    13651.665 
     667 7.1067975e-07   -796.93097            0   -796.93097    13651.657 
     668 5.7535393e-07   -796.93097            0   -796.93097    13651.649 
     669 3.5153804e-07   -796.93097            0   -796.93097    13651.646 
     670 3.0664345e-07   -796.93097            0   -796.93097    13651.644 
     671 3.5638925e-07   -796.93097            0   -796.93097    13651.644 
     672 4.2259167e-07   -796.93097            0   -796.93097    13651.644 
     673 4.9475465e-07   -796.93097            0   -796.93097    13651.644 
     674 5.7229182e-07   -796.93097            0   -796.93097    13651.644 
     675 6.5509497e-07   -796.93097            0   -796.93097    13651.644 
     676 7.4305841e-07   -796.93097            0   -796.93097    13651.644 
     677 8.3606928e-07   -796.93097            0   -796.93097    13651.644 
     678 9.3400769e-07   -796.93097            0   -796.93097    13651.644 
     679 1.0367468e-06   -796.93096            0   -796.93096    13651.644 
     680 1.1441529e-06   -796.93096            0   -796.93096    13651.644 
     681 1.2560856e-06   -796.93096            0   -796.93096    13651.644 
     682 1.3723981e-06   -796.93096            0   -796.93096    13651.644 
     683 1.4929369e-06   -796.93096            0   -796.93096    13651.644 
     684 1.6175423e-06   -796.93096            0   -796.93096    13651.644 
     685 1.7460487e-06   -796.93096            0   -796.93096    13651.644 
     686 1.878284e-06   -796.93096            0   -796.93096    13651.644 
     687 2.0140707e-06   -796.93096            0   -796.93096    13651.644 
     688 2.1532252e-06   -796.93096            0   -796.93096    13651.644 
     689 2.2955585e-06   -796.93096            0   -796.93096    13651.644 
     690 2.4408763e-06   -796.93096            0   -796.93096    13651.644 
     691 2.5889786e-06   -796.93096            0   -796.93096    13651.644 
     692 2.7396606e-06   -796.93096            0   -796.93096    13651.644 
     693 2.8927123e-06   -796.93096            0   -796.93096    13651.644 
     694 3.0479188e-06   -796.93096            0   -796.93096    13651.644 
     695 3.2050602e-06   -796.93096            0   -796.93096    13651.644 
     696 3.3639125e-06   -796.93096            0   -796.93096    13651.643 
     697 3.5242461e-06   -796.93096            0   -796.93096    13651.643 
     698 3.6858286e-06   -796.93096            0   -796.93096    13651.643 
     699 3.8484195e-06   -796.93096            0   -796.93096    13651.643 
     700 4.0117816e-06   -796.93096            0   -796.93096    13651.642 
     701 4.1756554e-06   -796.93096            0   -796.93096    13651.642 
     702 4.3397859e-06   -796.93095            0   -796.93095    13651.642 
     703 4.5036389e-06   -796.93095            0   -796.93095    13651.641 
     704 4.6633045e-06   -796.93095            0   -796.93095    13651.641 
     705 4.7677638e-06   -796.93095            0   -796.93095     13651.64 
     706 4.105484e-06   -796.93095            0   -796.93095    13651.641 
     707 5.1505078e-07   -796.93095            0   -796.93095     13651.64 
     708 2.5487797e-07   -796.93095            0   -796.93095     13651.64 
     709 2.9120504e-07   -796.93095            0   -796.93095     13651.64 
     710 3.3267922e-07   -796.93095            0   -796.93095     13651.64 
     711 3.7672152e-07   -796.93095            0   -796.93095     13651.64 
     712 4.2325077e-07   -796.93095            0   -796.93095     13651.64 
     713  4.72198e-07   -796.93095            0   -796.93095    13651.639 
     714 5.234993e-07   -796.93095            0   -796.93095    13651.639 
     715 5.7708471e-07   -796.93095            0   -796.93095    13651.639 
     716 6.3288239e-07   -796.93095            0   -796.93095    13651.639 
     717 6.9081598e-07   -796.93095            0   -796.93095    13651.639 
     718 7.5080676e-07   -796.93095            0   -796.93095    13651.638 
     719 8.1277173e-07   -796.93095            0   -796.93095    13651.638 
     720 8.7662576e-07   -796.93095            0   -796.93095    13651.638 
     721 9.4227919e-07   -796.93095            0   -796.93095    13651.638 
     722 1.0096412e-06   -796.93095            0   -796.93095    13651.637 
     723 1.0786148e-06   -796.93095            0   -796.93095    13651.637 
     724 1.1491051e-06   -796.93095            0   -796.93095    13651.637 
     725 1.2210052e-06   -796.93095            0   -796.93095    13651.636 
     726 1.2942212e-06   -796.93095            0   -796.93095    13651.636 
     727 1.3686191e-06   -796.93095            0   -796.93095    13651.636 
     728 1.4441204e-06   -796.93095            0   -796.93095    13651.635 
     729 1.5203896e-06   -796.93095            0   -796.93095    13651.635 
     730 1.5970516e-06   -796.93095            0   -796.93094    13651.634 
     731 1.669771e-06   -796.93094            0   -796.93094    13651.633 
     732 1.7155048e-06   -796.93094            0   -796.93094    13651.634 
     733 1.4628987e-06   -796.93094            0   -796.93094    13651.631 
     734 3.4569166e-07   -796.93094            0   -796.93094    13651.633 
     735 1.4740185e-07   -796.93094            0   -796.93094    13651.633 
     736 1.7112342e-07   -796.93094            0   -796.93094    13651.632 
     737 1.9671857e-07   -796.93094            0   -796.93094    13651.632 
     738 2.2396086e-07   -796.93094            0   -796.93094    13651.632 
     739 2.5281356e-07   -796.93094            0   -796.93094    13651.632 
     740 2.8323676e-07   -796.93094            0   -796.93094    13651.632 
     741 3.1518909e-07   -796.93094            0   -796.93094    13651.631 
     742 3.4862639e-07   -796.93094            0   -796.93094    13651.631 
     743 3.8350246e-07   -796.93094            0   -796.93094    13651.631 
     744 4.197686e-07   -796.93094            0   -796.93094    13651.631 
     745 4.5737402e-07   -796.93094            0   -796.93094     13651.63 
     746 4.9626557e-07   -796.93094            0   -796.93094     13651.63 
     747 5.3638804e-07   -796.93094            0   -796.93094     13651.63 
     748 5.7768392e-07   -796.93094            0   -796.93094    13651.629 
     749 6.2009382e-07   -796.93094            0   -796.93094    13651.629 
     750 6.6355587e-07   -796.93094            0   -796.93094    13651.628 
     751 7.0800682e-07   -796.93094            0   -796.93094    13651.628 
     752 7.5338025e-07   -796.93094            0   -796.93094    13651.628 
     753 7.9960991e-07   -796.93094            0   -796.93094    13651.627 
     754 8.4662325e-07   -796.93094            0   -796.93094    13651.627 
     755 8.9435511e-07   -796.93094            0   -796.93094    13651.626 
     756 9.4271749e-07   -796.93094            0   -796.93094    13651.626 
     757 9.9167275e-07   -796.93094            0   -796.93094    13651.625 
     758 1.0410653e-06   -796.93094            0   -796.93094    13651.624 
     759 1.0912341e-06   -796.93094            0   -796.93094    13651.624 
     760 1.1429967e-06   -796.93094            0   -796.93094    13651.623 
     761 1.2130897e-06   -796.93094            0   -796.93094    13651.624 
     762 1.2539263e-06   -796.93094            0   -796.93094    13651.619 
     763 2.9426806e-07   -796.93093            0   -796.93093    13651.622 
     764 8.8831819e-08   -796.93093            0   -796.93093    13651.622 
     765 1.0051737e-07   -796.93093            0   -796.93093    13651.621 
     766 1.1594742e-07   -796.93093            0   -796.93093    13651.621 
     767 1.3241592e-07   -796.93093            0   -796.93093    13651.621 
     768 1.4988488e-07   -796.93093            0   -796.93093    13651.621 
     769 1.6832699e-07   -796.93093            0   -796.93093     13651.62 
     770 1.8771692e-07   -796.93093            0   -796.93093     13651.62 
     771 2.080266e-07   -796.93093            0   -796.93093     13651.62 
     772 2.2922722e-07   -796.93093            0   -796.93093     13651.62 
     773 2.5128792e-07   -796.93093            0   -796.93093    13651.619 
     774 2.7417687e-07   -796.93093            0   -796.93093    13651.619 
     775 2.9786032e-07   -796.93093            0   -796.93093    13651.618 
     776 3.2230358e-07   -796.93093            0   -796.93093    13651.618 
     777   3.4747e-07   -796.93093            0   -796.93093    13651.618 
     778 3.7332229e-07   -796.93093            0   -796.93093    13651.617 
     779 3.9982066e-07   -796.93093            0   -796.93093    13651.617 
     780 4.2692587e-07   -796.93093            0   -796.93093    13651.616 
     781 4.5459407e-07   -796.93093            0   -796.93093    13651.616 
     782 4.8278632e-07   -796.93093            0   -796.93093    13651.615 
     783 5.1145052e-07   -796.93093            0   -796.93093    13651.615 
     784 5.4056223e-07   -796.93093            0   -796.93093    13651.614 
     785 5.700518e-07   -796.93093            0   -796.93093    13651.613 
     786 6.0011617e-07   -796.93093            0   -796.93093    13651.613 
     787 6.3151997e-07   -796.93093            0   -796.93093    13651.612 
     788 6.7390908e-07   -796.93093            0   -796.93093    13651.612 
     789 7.8586692e-07   -796.93093            0   -796.93093    13651.608 
     790 8.3806326e-07   -796.93093            0   -796.93093    13651.614 
     791 1.2583275e-07   -796.93093            0   -796.93093    13651.611 
     792 5.2848839e-08   -796.93093            0   -796.93093     13651.61 
     793 4.5521972e-08   -796.93093            0   -796.93093     13651.61 
     794 5.3745226e-08   -796.93093            0   -796.93093     13651.61 
     795 6.2863003e-08   -796.93093            0   -796.93093     13651.61 
     796 7.2648327e-08   -796.93093            0   -796.93093    13651.609 
     797 8.3087277e-08   -796.93093            0   -796.93093    13651.609 
     798 9.4164727e-08   -796.93093            0   -796.93093    13651.609 
     799 1.0586454e-07   -796.93093            0   -796.93093    13651.608 
     800 1.1816953e-07   -796.93093            0   -796.93093    13651.608 
     801 1.3106151e-07   -796.93093            0   -796.93093    13651.608 
     802 1.4452127e-07   -796.93093            0   -796.93093    13651.607 
     803 1.5852863e-07   -796.93093            0   -796.93093    13651.607 
     804 1.7306241e-07   -796.93093            0   -796.93093    13651.607 
     805 1.8810047e-07   -796.93093            0   -796.93093    13651.606 
     806 2.0361971e-07   -796.93092            0   -796.93092    13651.606 
     807 2.1959609e-07   -796.93092            0   -796.93092    13651.605 
     808 2.3600466e-07   -796.93092            0   -796.93092    13651.605 
     809 2.5281953e-07   -796.93092            0   -796.93092    13651.604 
     810 2.7001395e-07   -796.93092            0   -796.93092    13651.604 
     811 2.8756025e-07   -796.93092            0   -796.93092    13651.603 
     812 3.0542993e-07   -796.93092            0   -796.93092    13651.603 
     813 3.2359359e-07   -796.93092            0   -796.93092    13651.602 
     814 3.4202105e-07   -796.93092            0   -796.93092    13651.602 
     815 3.6068129e-07   -796.93092            0   -796.93092    13651.601 
     816 3.7954228e-07   -796.93092            0   -796.93092      13651.6 
     817 3.9857209e-07   -796.93092            0   -796.93092      13651.6 
     818 4.1773479e-07   -796.93092            0   -796.93092    13651.599 
     819 4.3700412e-07   -796.93092            0   -796.93092    13651.598 
     820 4.5631139e-07   -796.93092            0   -796.93092    13651.597 
     821 4.7567292e-07   -796.93092            0   -796.93092    13651.596 
     822 4.940937e-07   -796.93092            0   -796.93092    13651.596 
     823 5.0547047e-07   -796.93092            0   -796.93092    13651.594 
     824 4.1815001e-07   -796.93092            0   -796.93092    13651.596 
     825 4.782578e-08   -796.93092            0   -796.93092    13651.594 
     826 3.108523e-08   -796.93092            0   -796.93092    13651.594 
     827 3.3553476e-08   -796.93092            0   -796.93092    13651.594 
     828 3.8988465e-08   -796.93092            0   -796.93092    13651.593 
     829 4.4811097e-08   -796.93092            0   -796.93092    13651.593 
     830 5.1008517e-08   -796.93092            0   -796.93092    13651.593 
     831 5.7565682e-08   -796.93092            0   -796.93092    13651.592 
     832 6.4474459e-08   -796.93092            0   -796.93092    13651.592 
     833 7.172297e-08   -796.93092            0   -796.93092    13651.592 
     834 7.9300692e-08   -796.93092            0   -796.93092    13651.591 
     835 8.7195026e-08   -796.93092            0   -796.93092    13651.591 
     836 9.5394087e-08   -796.93092            0   -796.93092    13651.591 
     837 1.0388407e-07   -796.93092            0   -796.93092     13651.59 
     838 1.1265213e-07   -796.93092            0   -796.93092     13651.59 
     839 1.2168288e-07   -796.93092            0   -796.93092    13651.589 
     840 1.3096318e-07   -796.93092            0   -796.93092    13651.589 
     841 1.4047496e-07   -796.93092            0   -796.93092    13651.588 
     842 1.5020697e-07   -796.93092            0   -796.93092    13651.588 
     843 1.6013379e-07   -796.93092            0   -796.93092    13651.587 
     844 1.7025496e-07   -796.93091            0   -796.93091    13651.587 
     845 1.8051024e-07   -796.93091            0   -796.93091    13651.586 
     846 1.909377e-07   -796.93091            0   -796.93091    13651.585 
     847 2.0113205e-07   -796.93091            0   -796.93091    13651.585 
     848 2.1037763e-07   -796.93091            0   -796.93091    13651.584 
     849 2.0861467e-07   -796.93091            0   -796.93091    13651.584 
     850 1.5119807e-07   -796.93091            0   -796.93091    13651.582 
     851 2.9316497e-08   -796.93091            0   -796.93091    13651.583 
     852 1.9278307e-08   -796.93091            0   -796.93091    13651.583 
     853 2.2728903e-08   -796.93091            0   -796.93091    13651.582 
     854 2.6461172e-08   -796.93091            0   -796.93091    13651.582 
     855 3.0457421e-08   -796.93091            0   -796.93091    13651.582 
     856 3.4709563e-08   -796.93091            0   -796.93091    13651.582 
     857 3.9211368e-08   -796.93091            0   -796.93091    13651.581 
     858 4.3955452e-08   -796.93091            0   -796.93091    13651.581 
     859 4.8934355e-08   -796.93091            0   -796.93091    13651.581 
     860 5.4139947e-08   -796.93091            0   -796.93091     13651.58 
     861 5.9563858e-08   -796.93091            0   -796.93091     13651.58 
     862 6.5197126e-08   -796.93091            0   -796.93091    13651.579 
     863 7.103056e-08   -796.93091            0   -796.93091    13651.579 
     864 7.7054345e-08   -796.93091            0   -796.93091    13651.579 
     865 8.3258567e-08   -796.93091            0   -796.93091    13651.578 
     866 8.9632489e-08   -796.93091            0   -796.93091    13651.578 
     867 9.6165697e-08   -796.93091            0   -796.93091    13651.577 
     868 1.0284619e-07   -796.93091            0   -796.93091    13651.577 
     869 1.0966389e-07   -796.93091            0   -796.93091    13651.576 
     870 1.1660369e-07   -796.93091            0   -796.93091    13651.575 
     871 1.2365994e-07   -796.93091            0   -796.93091    13651.575 
     872 1.3080199e-07   -796.93091            0   -796.93091    13651.574 
     873 1.3804569e-07   -796.93091            0   -796.93091    13651.574 
     874 1.451866e-07   -796.93091            0   -796.93091    13651.573 
     875 1.5184244e-07   -796.93091            0   -796.93091    13651.572 
     876 1.5161362e-07   -796.93091            0   -796.93091    13651.572 
     877 1.0958447e-07   -796.93091            0   -796.93091    13651.571 
     878 1.5241164e-08   -796.93091            0   -796.93091    13651.571 
     879 1.1458344e-08   -796.93091            0   -796.93091    13651.571 
     880 1.3099371e-08   -796.93091            0   -796.93091    13651.571 
     881 1.5447633e-08   -796.93091            0   -796.93091     13651.57 
     882 1.7978367e-08   -796.93091            0   -796.93091     13651.57 
     883 2.068587e-08   -796.93091            0   -796.93091     13651.57 
     884 2.3565984e-08   -796.93091            0   -796.93091     13651.57 
     885 2.6613943e-08   -796.93091            0   -796.93091    13651.569 
     886 2.9824803e-08   -796.93091            0   -796.93091    13651.569 
     887 3.3193243e-08   -796.93091            0   -796.93091    13651.569 
     888 3.6713703e-08   -796.93091            0   -796.93091    13651.568 
     889 4.0380283e-08   -796.93091            0   -796.93091    13651.568 
     890 4.4186848e-08   -796.93091            0   -796.93091    13651.567 
     891 4.812693e-08   -796.93091            0   -796.93091    13651.567 
     892 5.2193863e-08   -796.93091            0   -796.93091    13651.567 
     893 5.6380615e-08   -796.93091            0   -796.93091    13651.566 
     894 6.0680058e-08   -796.93091            0   -796.93091    13651.566 
     895 6.5084547e-08   -796.93091            0   -796.93091    13651.565 
     896 6.9586704e-08    -796.9309            0    -796.9309    13651.565 
     897 7.4177909e-08    -796.9309            0    -796.9309    13651.564 
     898 7.8851487e-08    -796.9309            0    -796.9309    13651.564 
     899 8.3595567e-08    -796.9309            0    -796.9309    13651.563 
     900 8.8410117e-08    -796.9309            0    -796.9309    13651.562 
     901 9.3263778e-08    -796.9309            0    -796.9309    13651.562 
     902 9.8217105e-08    -796.9309            0    -796.9309    13651.561 
     903 1.0317705e-07    -796.9309            0    -796.9309     13651.56 
     904 1.0925324e-07    -796.9309            0    -796.9309    13651.561 
     905 9.1434026e-08    -796.9309            0    -796.9309    13651.558 
     906 9.9791597e-09    -796.9309            0    -796.9309    13651.559 
     907 6.8019325e-09    -796.9309            0    -796.9309    13651.559 
     908 6.0808599e-09    -796.9309            0    -796.9309    13651.559 
     909 7.3099924e-09    -796.9309            0    -796.9309    13651.559 
     910 8.7637155e-09    -796.9309            0    -796.9309    13651.559 
     911  1.03427e-08    -796.9309            0    -796.9309    13651.558 
     912 1.2043646e-08    -796.9309            0    -796.9309    13651.558 
     913 1.386381e-08    -796.9309            0    -796.9309    13651.558 
     914 1.5800189e-08    -796.9309            0    -796.9309    13651.558 
     915 1.7849585e-08    -796.9309            0    -796.9309    13651.557 
     916 2.0008584e-08    -796.9309            0    -796.9309    13651.557 
     917 2.2273577e-08    -796.9309            0    -796.9309    13651.557 
     918 2.4640751e-08    -796.9309            0    -796.9309    13651.556 
     919 2.7106104e-08    -796.9309            0    -796.9309    13651.556 
     920 2.9665443e-08    -796.9309            0    -796.9309    13651.556 
     921 3.2314396e-08    -796.9309            0    -796.9309    13651.555 
     922 3.504841e-08    -796.9309            0    -796.9309    13651.555 
     923 3.7862771e-08    -796.9309            0    -796.9309    13651.554 
     924 4.0752588e-08    -796.9309            0    -796.9309    13651.554 
     925 4.3712837e-08    -796.9309            0    -796.9309    13651.553 
     926 4.6738303e-08    -796.9309            0    -796.9309    13651.553 
     927 4.9823723e-08    -796.9309            0    -796.9309    13651.552 
     928 5.2963488e-08    -796.9309            0    -796.9309    13651.552 
     929 5.6152398e-08    -796.9309            0    -796.9309    13651.551 
     930 5.9383798e-08    -796.9309            0    -796.9309    13651.551 
     931 6.2654877e-08    -796.9309            0    -796.9309     13651.55 
     932 6.5954016e-08    -796.9309            0    -796.9309    13651.549 
     933 6.9322862e-08    -796.9309            0    -796.9309    13651.549 
     934 7.2930978e-08    -796.9309            0    -796.9309    13651.548 
     935 7.9885847e-08    -796.9309            0    -796.9309    13651.548 
     936 1.0380522e-07    -796.9309            0    -796.9309    13651.545 
     937 2.9047121e-08    -796.9309            0    -796.9309    13651.547 
     938 5.3897002e-09    -796.9309            0    -796.9309    13651.547 
     939 6.1103049e-09    -796.9309            0    -796.9309    13651.546 
     940 7.1786828e-09    -796.9309            0    -796.9309    13651.546 
     941 8.3306763e-09    -796.9309            0    -796.9309    13651.546 
     942 9.562081e-09    -796.9309            0    -796.9309    13651.546 
     943 1.0869938e-08    -796.9309            0    -796.9309    13651.545 
     944 1.2252435e-08    -796.9309            0    -796.9309    13651.545 
     945 1.3707005e-08    -796.9309            0    -796.9309    13651.545 
     946 1.523144e-08    -796.9309            0    -796.9309    13651.545 
     947 1.6822966e-08    -796.9309            0    -796.9309    13651.544 
     948 1.8479153e-08    -796.9309            0    -796.9309    13651.544 
     949 2.0196891e-08    -796.9309            0    -796.9309    13651.544 
     950 2.1973722e-08    -796.9309            0    -796.9309    13651.543 
     951 2.3805938e-08    -796.9309            0    -796.9309    13651.543 
     952 2.569163e-08    -796.9309            0    -796.9309    13651.542 
     953 2.7625506e-08    -796.9309            0    -796.9309    13651.542 
     954 2.960919e-08    -796.9309            0    -796.9309    13651.541 
     955 3.1633141e-08    -796.9309            0    -796.9309    13651.541 
     956 3.3734348e-08    -796.9309            0    -796.9309     13651.54 
     957 3.5986078e-08   -796.93089            0   -796.93089     13651.54 
     958 3.9427704e-08   -796.93089            0   -796.93089     13651.54 
     959 4.929944e-08   -796.93089            0   -796.93089    13651.538 
     960 6.3959184e-08   -796.93089            0   -796.93089     13651.54 
     961 1.5794686e-08   -796.93089            0   -796.93089    13651.539 
     962 3.6058978e-09   -796.93089            0   -796.93089    13651.538 
     963 4.0103847e-09   -796.93089            0   -796.93089    13651.538 
     964 4.7628189e-09   -796.93089            0   -796.93089    13651.538 
     965 5.5779374e-09   -796.93089            0   -796.93089    13651.538 
     966 6.4526211e-09   -796.93089            0   -796.93089    13651.537 
     967 7.3856097e-09   -796.93089            0   -796.93089    13651.537 
     968 8.3752949e-09   -796.93089            0   -796.93089    13651.537 
     969 9.4201176e-09   -796.93089            0   -796.93089    13651.537 
     970 1.0518324e-08   -796.93089            0   -796.93089    13651.536 
     971 1.1668153e-08   -796.93089            0   -796.93089    13651.536 
     972 1.286767e-08   -796.93089            0   -796.93089    13651.536 
     973 1.4114949e-08   -796.93089            0   -796.93089    13651.535 
     974 1.5407859e-08   -796.93089            0   -796.93089    13651.535 
     975 1.6744372e-08   -796.93089            0   -796.93089    13651.535 
     976 1.8122095e-08   -796.93089            0   -796.93089    13651.534 
     977 1.9539075e-08   -796.93089            0   -796.93089    13651.534 
     978 2.0992348e-08   -796.93089            0   -796.93089    13651.533 
     979 2.2480922e-08   -796.93089            0   -796.93089    13651.533 
     980 2.3999897e-08   -796.93089            0   -796.93089    13651.533 
     981 2.5557268e-08   -796.93089            0   -796.93089    13651.532 
     982 2.7156813e-08   -796.93089            0   -796.93089    13651.532 
     983 2.9034117e-08   -796.93089            0   -796.93089    13651.531 
     984 3.2627511e-08   -796.93089            0   -796.93089     13651.53 
     985 4.9092335e-08   -796.93089            0   -796.93089    13651.531 
     986 6.3298388e-08   -796.93089            0   -796.93089    13651.528 
     987 8.3876743e-09   -796.93089            0   -796.93089    13651.529 
     988 2.9704298e-09   -796.93089            0   -796.93089    13651.529 
     989 2.119944e-09   -796.93089            0   -796.93089    13651.529 
     990 2.5618668e-09   -796.93089            0   -796.93089    13651.529 
     991 3.0787017e-09   -796.93089            0   -796.93089    13651.529 
     992 3.6405171e-09   -796.93089            0   -796.93089    13651.529 
     993 4.2464279e-09   -796.93089            0   -796.93089    13651.529 
     994 4.895488e-09   -796.93089            0   -796.93089    13651.528 
     995 5.586677e-09   -796.93089            0   -796.93089    13651.528 
     996 6.3189064e-09   -796.93089            0   -796.93089    13651.528 
     997 7.0910198e-09   -796.93089            0   -796.93089    13651.528 
     998 7.9017958e-09   -796.93089            0   -796.93089    13651.527 
     999 8.7499497e-09   -796.93089            0   -796.93089    13651.527 
    1000 9.6341373e-09   -796.93089            0   -796.93089    13651.527 
    1001 1.0552955e-08   -796.93089            0   -796.93089    13651.527 
    1002 1.1504948e-08   -796.93089            0   -796.93089    13651.526 
    1003 1.2488604e-08   -796.93089            0   -796.93089    13651.526 
    1004 1.3502367e-08   -796.93089            0   -796.93089    13651.525 
    1005 1.4544631e-08   -796.93089            0   -796.93089    13651.525 
    1006 1.5613757e-08   -796.93089            0   -796.93089    13651.525 
    1007 1.6708042e-08   -796.93089            0   -796.93089    13651.524 
    1008 1.7825809e-08   -796.93089            0   -796.93089    13651.524 
    1009 1.8965208e-08   -796.93089            0   -796.93089    13651.523 
    1010 2.0124717e-08   -796.93089            0   -796.93089    13651.523 
    1011 2.1301864e-08   -796.93089            0   -796.93089    13651.522 
    1012 2.2497083e-08   -796.93089            0   -796.93089    13651.522 
    1013 2.3704663e-08   -796.93089            0   -796.93089    13651.521 
    1014 2.4970452e-08   -796.93089            0   -796.93089    13651.521 
    1015 2.6558833e-08   -796.93089            0   -796.93089     13651.52 
    1016 3.2378274e-08   -796.93089            0   -796.93089    13651.521 
    1017 3.6421984e-08   -796.93089            0   -796.93089    13651.518 
    1018 1.1777212e-09   -796.93089            0   -796.93089    13651.519 
    1019 1.3586446e-09   -796.93089            0   -796.93089    13651.519 
    1020 1.1638478e-09   -796.93089            0   -796.93089    13651.519 
[...]
    1984 3.9944001e-05   -796.91275            0   -796.91275    13600.941 
    1985 4.3400321e-06   -796.91275            0   -796.91275    13600.934 
    1986 5.0903135e-06   -796.91275            0   -796.91275    13600.932 
    1987  6.09515e-06   -796.91275            0   -796.91275     13600.93 
    1988 7.1877084e-06   -796.91275            0   -796.91275    13600.927 
    1989 8.3669131e-06   -796.91274            0   -796.91274    13600.924 
    1990 9.6310247e-06   -796.91274            0   -796.91274    13600.921 
    1991 1.0979023e-05   -796.91274            0   -796.91274    13600.918 
    1992 1.2409344e-05   -796.91274            0   -796.91274    13600.915 
    1993 1.3920724e-05   -796.91274            0   -796.91274    13600.911 
    1994 1.5511453e-05   -796.91273            0   -796.91273    13600.908 
    1995 1.7180175e-05   -796.91273            0   -796.91273    13600.904 
    1996 1.8924909e-05   -796.91273            0   -796.91273      13600.9 
    1997 2.0744448e-05   -796.91273            0   -796.91273    13600.896 
    1998 2.2636124e-05   -796.91273            0   -796.91272    13600.892 
    1999 2.4599765e-05   -796.91272            0   -796.91272    13600.888 
    2000 2.6629866e-05   -796.91272            0   -796.91272    13600.884 
    2001 2.8731446e-05   -796.91272            0   -796.91272    13600.879 
    2002 3.0878008e-05   -796.91271            0   -796.91271    13600.876 
    2003 3.3074163e-05   -796.91271            0   -796.91271    13600.867 
    2004 3.4822757e-05   -796.91271            0   -796.91271    13600.875 
    2005 3.3030234e-05   -796.91271            0   -796.91271     13600.84 
    2006 1.1937251e-05   -796.91271            0   -796.91271    13600.871 
    2007 2.6804889e-06    -796.9127            0    -796.9127     13600.86 
    2008 2.7262794e-06    -796.9127            0    -796.9127    13600.858 
    2009 3.3339666e-06    -796.9127            0    -796.9127    13600.857 
    2010 4.0125424e-06    -796.9127            0    -796.9127    13600.856 
    2011 4.7516656e-06    -796.9127            0    -796.9127    13600.854 
    2012 5.5506635e-06    -796.9127            0    -796.9127    13600.853 
    2013 6.4086632e-06    -796.9127            0    -796.9127    13600.851 
    2014 7.3247825e-06    -796.9127            0    -796.9127    13600.849 
    2015 8.2980521e-06    -796.9127            0    -796.9127    13600.847 
    2016 9.3274665e-06    -796.9127            0    -796.9127    13600.846 
    2017 1.0411947e-05   -796.91269            0   -796.91269    13600.844 
    2018 1.1550385e-05   -796.91269            0   -796.91269    13600.842 
    2019 1.2741596e-05   -796.91269            0   -796.91269     13600.84 
    2020 1.3984391e-05   -796.91269            0   -796.91269    13600.838 
    2021 1.527748e-05   -796.91269            0   -796.91269    13600.835 
    2022 1.6619637e-05   -796.91269            0   -796.91269    13600.833 
    2023 1.8009408e-05   -796.91268            0   -796.91268    13600.831 
    2024 1.9445698e-05   -796.91268            0   -796.91268    13600.829 
    2025 2.0926355e-05   -796.91268            0   -796.91268    13600.827 
    2026 2.2450617e-05   -796.91268            0   -796.91268    13600.824 
    2027 2.4004679e-05   -796.91268            0   -796.91268    13600.822 
    2028 2.5525258e-05   -796.91268            0   -796.91267     13600.82 
    2029 2.6226641e-05   -796.91267            0   -796.91267    13600.819 
    2030 1.9913742e-05   -796.91267            0   -796.91267    13600.814 
    2031 2.3451121e-06   -796.91267            0   -796.91267    13600.816 
    2032 1.7655452e-06   -796.91267            0   -796.91267    13600.815 
    2033 2.1582767e-06   -796.91267            0   -796.91267    13600.815 
    2034 2.599934e-06   -796.91267            0   -796.91267    13600.814 
    2035 3.0812852e-06   -796.91267            0   -796.91267    13600.814 
    2036 3.6017518e-06   -796.91267            0   -796.91267    13600.813 
    2037 4.1607642e-06   -796.91267            0   -796.91267    13600.813 
    2038 4.7577122e-06   -796.91267            0   -796.91267    13600.812 
    2039 5.3919505e-06   -796.91267            0   -796.91267    13600.811 
    2040  6.06279e-06   -796.91267            0   -796.91267    13600.811 
    2041 6.7695115e-06   -796.91266            0   -796.91266     13600.81 
    2042 7.5113525e-06   -796.91266            0   -796.91266    13600.809 
    2043 8.2875309e-06   -796.91266            0   -796.91266    13600.809 
    2044 9.0972135e-06   -796.91266            0   -796.91266    13600.808 
    2045 9.9395766e-06   -796.91266            0   -796.91266    13600.808 
    2046 1.0813694e-05   -796.91266            0   -796.91266    13600.807 
    2047 1.1718758e-05   -796.91266            0   -796.91266    13600.806 
    2048 1.2653481e-05   -796.91266            0   -796.91266    13600.806 
    2049 1.3616844e-05   -796.91266            0   -796.91266    13600.805 
    2050 1.4601022e-05   -796.91266            0   -796.91266    13600.806 
    2051 1.5570128e-05   -796.91265            0   -796.91265    13600.803 
    2052 1.6162254e-05   -796.91265            0   -796.91265    13600.809 
    2053 1.3701341e-05   -796.91265            0   -796.91265    13600.793 
    2054 3.1800483e-06   -796.91265            0   -796.91265    13600.807 
    2055 1.2408398e-06   -796.91265            0   -796.91265    13600.804 
    2056 1.4312834e-06   -796.91265            0   -796.91265    13600.804 
    2057 1.7247956e-06   -796.91265            0   -796.91265    13600.804 
    2058 2.044823e-06   -796.91265            0   -796.91265    13600.804 
    2059 2.3909131e-06   -796.91265            0   -796.91265    13600.804 
    2060 2.7626246e-06   -796.91265            0   -796.91265    13600.804 
    2061 3.1595615e-06   -796.91265            0   -796.91265    13600.804 
    2062 3.5812625e-06   -796.91265            0   -796.91265    13600.804 
    2063 4.0272692e-06   -796.91265            0   -796.91265    13600.805 
    2064 4.4970705e-06   -796.91265            0   -796.91265    13600.805 
    2065 4.9901624e-06   -796.91265            0   -796.91265    13600.805 
    2066 5.5059791e-06   -796.91265            0   -796.91265    13600.805 
    2067 6.0439923e-06   -796.91265            0   -796.91265    13600.805 
    2068 6.6035599e-06   -796.91265            0   -796.91265    13600.806 
    2069 7.1841953e-06   -796.91265            0   -796.91265    13600.806 
    2070 7.7850523e-06   -796.91265            0   -796.91265    13600.807 
    2071 8.4060129e-06   -796.91264            0   -796.91264    13600.807 
    2072 9.0451755e-06   -796.91264            0   -796.91264    13600.808 
    2073 9.7051504e-06   -796.91264            0   -796.91264    13600.808 
    2074 1.0377807e-05   -796.91264            0   -796.91264    13600.811 
    2075 1.1108345e-05   -796.91264            0   -796.91264    13600.804 
    2076 1.165851e-05   -796.91264            0   -796.91264    13600.826 
    2077 5.3403284e-06   -796.91264            0   -796.91264    13600.804 
    2078 8.5835439e-07   -796.91264            0   -796.91264     13600.81 
    2079 7.2403526e-07   -796.91264            0   -796.91264    13600.812 
    2080 8.8452675e-07   -796.91264            0   -796.91264    13600.812 
    2081 1.0710779e-06   -796.91264            0   -796.91264    13600.812 
    2082 1.2748253e-06   -796.91264            0   -796.91264    13600.813 
    2083 1.4955277e-06   -796.91264            0   -796.91264    13600.813 
    2084 1.7329292e-06   -796.91264            0   -796.91264    13600.814 
    2085 1.9867533e-06   -796.91264            0   -796.91264    13600.814 
    2086 2.256705e-06   -796.91264            0   -796.91264    13600.815 
    2087 2.5424713e-06   -796.91264            0   -796.91264    13600.815 
    2088 2.8437226e-06   -796.91264            0   -796.91264    13600.816 
    2089 3.1601126e-06   -796.91264            0   -796.91264    13600.817 
    2090 3.4912805e-06   -796.91264            0   -796.91264    13600.818 
    2091 3.8368511e-06   -796.91264            0   -796.91264    13600.818 
    2092 4.1964375e-06   -796.91264            0   -796.91264    13600.819 
    2093 4.5696398e-06   -796.91264            0   -796.91264     13600.82 
    2094 4.9560516e-06   -796.91264            0   -796.91264    13600.822 
    2095 5.355252e-06   -796.91264            0   -796.91264    13600.823 
    2096 5.7668274e-06   -796.91264            0   -796.91264    13600.824 
    2097 6.1903265e-06   -796.91264            0   -796.91264    13600.825 
    2098 6.6253842e-06   -796.91264            0   -796.91264    13600.827 
    2099 7.0713911e-06   -796.91264            0   -796.91264    13600.829 
    2100 7.5285306e-06   -796.91264            0   -796.91264     13600.83 
    2101 7.9950483e-06   -796.91264            0   -796.91264    13600.832 
    2102 8.4836248e-06   -796.91264            0   -796.91264    13600.833 
    2103 9.0626047e-06   -796.91264            0   -796.91264    13600.841 
    2104 1.0773364e-05   -796.91264            0   -796.91264    13600.822 
    2105 5.4850718e-06   -796.91264            0   -796.91264    13600.848 
    2106 3.0763479e-07   -796.91264            0   -796.91264    13600.843 
    2107 2.7412392e-07   -796.91264            0   -796.91264    13600.841 
    2108 2.9882795e-07   -796.91264            0   -796.91264     13600.84 
    2109 3.7284322e-07   -796.91264            0   -796.91264     13600.84 
    2110 4.6317676e-07   -796.91264            0   -796.91264    13600.841 
    2111 5.6342583e-07   -796.91264            0   -796.91264    13600.841 
    2112 6.7314034e-07   -796.91264            0   -796.91264    13600.842 
    2113 7.921808e-07   -796.91264            0   -796.91264    13600.843 
    2114 9.2040321e-07   -796.91264            0   -796.91264    13600.843 
    2115 1.0576512e-06   -796.91264            0   -796.91264    13600.844 
    2116 1.2037579e-06   -796.91264            0   -796.91264    13600.845 
    2117 1.3585461e-06   -796.91264            0   -796.91264    13600.846 
    2118 1.5218287e-06   -796.91264            0   -796.91264    13600.847 
    2119 1.6934093e-06   -796.91264            0   -796.91264    13600.848 
    2120 1.8730829e-06   -796.91264            0   -796.91264    13600.849 
    2121 2.0606364e-06   -796.91264            0   -796.91264    13600.851 
    2122 2.2558496e-06   -796.91264            0   -796.91264    13600.852 
    2123 2.4584951e-06   -796.91264            0   -796.91264    13600.854 
    2124 2.6683416e-06   -796.91264            0   -796.91264    13600.855 
    2125 2.8851496e-06   -796.91264            0   -796.91264    13600.857 
    2126 3.1086829e-06   -796.91264            0   -796.91264    13600.859 
    2127 3.3386868e-06   -796.91264            0   -796.91264     13600.86 
    2128 3.5749455e-06   -796.91264            0   -796.91264    13600.862 
    2129 3.8171327e-06   -796.91264            0   -796.91264    13600.864 
    2130 4.0652536e-06   -796.91264            0   -796.91264    13600.866 
    2131 4.3183038e-06   -796.91264            0   -796.91264    13600.869 
    2132 4.5790989e-06   -796.91264            0   -796.91264    13600.871 
    2133 4.8417117e-06   -796.91264            0   -796.91264    13600.876 
    2134 5.1292294e-06   -796.91264            0   -796.91264    13600.867 
    2135 2.4217772e-06   -796.91264            0   -796.91264    13600.884 
    2136 6.7822096e-08   -796.91264            0   -796.91264    13600.882 
    2137 8.9795213e-08   -796.91264            0   -796.91264     13600.88 
    2138 1.0603588e-07   -796.91264            0   -796.91264    13600.879 
    2139 1.284783e-07   -796.91264            0   -796.91264    13600.879 
    2140 1.6381247e-07   -796.91264            0   -796.91264    13600.879 
    2141 2.0761265e-07   -796.91264            0   -796.91264    13600.879 
    2142 2.5706133e-07   -796.91264            0   -796.91264     13600.88 
    2143 3.1165433e-07   -796.91264            0   -796.91264    13600.881 
    2144 3.7129553e-07   -796.91264            0   -796.91264    13600.881 
    2145 4.3590841e-07   -796.91264            0   -796.91264    13600.882 
    2146 5.0541089e-07   -796.91264            0   -796.91264    13600.883 
    2147 5.7971448e-07   -796.91264            0   -796.91264    13600.884 
    2148 6.5872475e-07   -796.91264            0   -796.91264    13600.885 
    2149 7.423415e-07   -796.91264            0   -796.91264    13600.886 
    2150 8.3045914e-07   -796.91264            0   -796.91264    13600.887 
    2151 9.2296692e-07   -796.91264            0   -796.91264    13600.889 
    2152 1.0197493e-06   -796.91264            0   -796.91264     13600.89 
    2153 1.1206865e-06   -796.91264            0   -796.91264    13600.891 
    2154 1.2256545e-06   -796.91264            0   -796.91264    13600.893 
    2155 1.3345259e-06   -796.91264            0   -796.91264    13600.894 
    2156 1.4471704e-06   -796.91264            0   -796.91264    13600.896 
    2157 1.5634545e-06   -796.91264            0   -796.91264    13600.898 
    2158 1.6832442e-06   -796.91264            0   -796.91264      13600.9 
    2159 1.806401e-06   -796.91264            0   -796.91264    13600.902 
    2160 1.9327934e-06   -796.91264            0   -796.91264    13600.904 
    2161 2.0622689e-06   -796.91264            0   -796.91264    13600.906 
    2162 2.1947389e-06   -796.91264            0   -796.91264    13600.908 
    2163 2.3299117e-06   -796.91264            0   -796.91264    13600.911 
    2164 2.4681543e-06   -796.91264            0   -796.91264    13600.913 
    2165 2.6068204e-06   -796.91264            0   -796.91264    13600.917 
    2166 2.7434693e-06   -796.91265            0   -796.91265    13600.916 
    2167 2.5616219e-06   -796.91265            0   -796.91265    13600.929 
    2168 1.7600634e-07   -796.91265            0   -796.91265    13600.925 
    2169 1.5377092e-07   -796.91265            0   -796.91265    13600.922 
    2170 1.1680858e-07   -796.91265            0   -796.91265    13600.922 
    2171 1.3897878e-07   -796.91265            0   -796.91265    13600.923 
    2172 1.6768365e-07   -796.91265            0   -796.91265    13600.923 
    2173 1.9896801e-07   -796.91265            0   -796.91265    13600.924 
    2174 2.327874e-07   -796.91265            0   -796.91265    13600.925 
    2175 2.6909723e-07   -796.91265            0   -796.91265    13600.926 
    2176 3.0784881e-07   -796.91265            0   -796.91265    13600.927 
    2177 3.4899059e-07   -796.91265            0   -796.91265    13600.928 
    2178 3.9246771e-07   -796.91265            0   -796.91265    13600.929 
    2179 4.3822262e-07   -796.91265            0   -796.91265     13600.93 
    2180 4.8619481e-07   -796.91265            0   -796.91265    13600.931 
    2181 5.3632148e-07   -796.91265            0   -796.91265    13600.933 
    2182 5.8853711e-07   -796.91265            0   -796.91265    13600.934 
    2183 6.4277456e-07   -796.91265            0   -796.91265    13600.935 
    2184 6.9896385e-07   -796.91265            0   -796.91265    13600.937 
    2185 7.5703509e-07   -796.91265            0   -796.91265    13600.939 
    2186 8.1691334e-07   -796.91265            0   -796.91265     13600.94 
    2187 8.7853068e-07   -796.91265            0   -796.91265    13600.942 
    2188 9.4179869e-07   -796.91265            0   -796.91265    13600.944 
    2189 1.0066817e-06   -796.91265            0   -796.91265    13600.946 
    2190 1.0730065e-06   -796.91265            0   -796.91265    13600.948 
    2191 1.141164e-06   -796.91265            0   -796.91265     13600.95 
    2192 1.2114463e-06   -796.91265            0   -796.91265    13600.953 
    2193 1.307293e-06   -796.91265            0   -796.91265    13600.953 
    2194 1.6181139e-06   -796.91265            0   -796.91265    13600.964 
    2195 1.0638097e-06   -796.91265            0   -796.91265    13600.953 
    2196 5.1664156e-08   -796.91265            0   -796.91265    13600.956 
    2197 4.382595e-08   -796.91265            0   -796.91265    13600.958 
    2198 4.1371627e-08   -796.91265            0   -796.91265    13600.959 
    2199 4.9802601e-08   -796.91265            0   -796.91265    13600.959 
    2200 6.2240535e-08   -796.91265            0   -796.91265     13600.96 
    2201 7.6262178e-08   -796.91265            0   -796.91265     13600.96 
    2202 9.1651915e-08   -796.91265            0   -796.91265    13600.961 
    2203 1.0838845e-07   -796.91265            0   -796.91265    13600.962 
    2204 1.2644822e-07   -796.91265            0   -796.91265    13600.963 
    2205 1.4580585e-07   -796.91265            0   -796.91265    13600.963 
    2206 1.6643411e-07   -796.91265            0   -796.91265    13600.964 
    2207 1.8830399e-07   -796.91265            0   -796.91265    13600.965 
    2208 2.1138473e-07   -796.91265            0   -796.91265    13600.966 
    2209 2.3564398e-07   -796.91265            0   -796.91265    13600.967 
    2210 2.6104779e-07   -796.91265            0   -796.91265    13600.968 
    2211 2.8756078e-07   -796.91265            0   -796.91265     13600.97 
    2212 3.1514616e-07   -796.91265            0   -796.91265    13600.971 
    2213 3.4376592e-07   -796.91265            0   -796.91265    13600.972 
    2214 3.7338079e-07   -796.91266            0   -796.91266    13600.974 
    2215 4.039506e-07   -796.91266            0   -796.91266    13600.975 
    2216 4.3543393e-07   -796.91266            0   -796.91266    13600.977 
    2217 4.6778913e-07   -796.91266            0   -796.91266    13600.978 
    2218 5.0097247e-07   -796.91266            0   -796.91266     13600.98 
    2219 5.349432e-07   -796.91266            0   -796.91266    13600.982 
    2220 5.6964998e-07   -796.91266            0   -796.91266    13600.984 
    2221 6.0507343e-07   -796.91266            0   -796.91266    13600.986 
    2222 6.4110209e-07   -796.91266            0   -796.91266    13600.988 
    2223 6.7814533e-07   -796.91266            0   -796.91266     13600.99 
    2224 7.1770997e-07   -796.91266            0   -796.91266    13600.993 
    2225 8.0439204e-07   -796.91266            0   -796.91266    13600.991 
    2226 9.1912356e-07   -796.91266            0   -796.91266    13601.002 
    2227 6.9095123e-10   -796.91266            0   -796.91266    13601.002 
Loop time of 427.117 on 24 procs for 727 steps with 127 atoms

98.2% CPU use with 24 MPI tasks x no OpenMP threads

Minimization stats:
  Stopping criterion = energy tolerance
  Energy initial, next-to-last, final = 
        -796.930865797     -796.912659679      -796.91265968
  Force two-norm initial, final = 3.54995e-06 0.000205575
  Force max component initial, final = 1.32882e-06 5.12251e-05
  Final line search alpha, max atom move = 0 0
  Iterations, force evaluations = 727 727

MPI task timing breakdown:
Section |  min time  |  avg time  |  max time  |%varavg| %total
---------------------------------------------------------------
Pair    | 176.19     | 313.38     | 426.28     | 407.7 | 73.37
Neigh   | 0          | 0          | 0          |   0.0 |  0.00
Comm    | 0.046425   | 112.95     | 250.14     | 679.0 | 26.44
Output  | 0.12837    | 0.12858    | 0.12912    |   0.0 |  0.03
Modify  | 0.19642    | 0.19722    | 0.19793    |   0.1 |  0.05
Other   |            | 0.4647     |            |       |  0.11

Nlocal:    5.29167 ave 7 max 3 min
Histogram: 4 0 0 0 0 8 0 9 0 3
Nghost:    761.125 ave 803 max 714 min
Histogram: 7 1 0 0 0 6 2 0 1 7
Neighs:    0 ave 0 max 0 min
Histogram: 24 0 0 0 0 0 0 0 0 0
FullNghs:  1068.42 ave 1407 max 615 min
Histogram: 4 0 0 0 4 4 0 9 0 3

Total # of neighbors = 25642
Ave neighs/atom = 201.906
Neighbor list builds = 0
Dangerous builds = 0
Total wall time: 0:22:05
