LAMMPS (12 Dec 2018)
Processor partition = 7
Reading data file ...
  orthogonal box = (0 0 0) to (10.0025 12.3537 10.615)
  2 by 4 by 3 MPI processor grid
  reading atoms ...
  127 atoms
Reading potential file lammps-force.nnp with DATE: 20201105
Reading potential file lammps_rot.nnp with DATE: 20211226
Neighbor list info ...
  update every 1 steps, delay 0 steps, check yes
  max neighbors/atom: 2000, page size: 100000
  master list distance cutoff = 8
  ghost atom cutoff = 8
  binsize = 4, bins = 3 4 3
  2 neighbor lists, perpetual/occasional/extra = 2 0 0
  (1) pair nnp3v, perpetual
      attributes: full, newton on
      pair build: full/bin/atomonly
      stencil: full/bin/3d
      bin: standard
  (2) pair nnp3v_vf, perpetual, copy from (1)
      attributes: full, newton on
      pair build: copy
      stencil: none
      bin: none
Setting up quickmin style minimization ...
  Unit style    : metal
  Current step  : 0
Per MPI rank memory allocation (min/avg/max) = 3.111 | 3.226 | 3.362 Mbytes
Step Temp E_pair E_mol TotEng Press 
       0            0   -796.79482            0   -796.79482    13324.103 
      24   0.66844098   -796.99042            0   -796.97954    13893.519 
Loop time of 14.4545 on 24 procs for 24 steps with 127 atoms

98.4% CPU use with 24 MPI tasks x no OpenMP threads

Minimization stats:
  Stopping criterion = energy tolerance
  Energy initial, next-to-last, final = 
        -796.794816724     -796.990398619     -796.990424995
  Force two-norm initial, final = 1.98977 0.177561
  Force max component initial, final = 0.330078 0.036579
  Final line search alpha, max atom move = 0 0
  Iterations, force evaluations = 24 24

MPI task timing breakdown:
Section |  min time  |  avg time  |  max time  |%varavg| %total
---------------------------------------------------------------
Pair    | 6.0568     | 10.684     | 14.452     |  77.2 | 73.91
Neigh   | 0          | 0          | 0          |   0.0 |  0.00
Comm    | 0.0017467  | 3.7699     | 8.3967     | 129.9 | 26.08
Output  | 0          | 0          | 0          |   0.0 |  0.00
Modify  | 0          | 0          | 0          |   0.0 |  0.00
Other   |            | 0.001125   |            |       |  0.01

Nlocal:    5.29167 ave 7 max 3 min
Histogram: 4 0 0 0 0 9 0 7 0 4
Nghost:    759.125 ave 797 max 714 min
Histogram: 7 1 0 0 0 2 6 0 0 8
Neighs:    0 ave 0 max 0 min
Histogram: 24 0 0 0 0 0 0 0 0 0
FullNghs:  1068 ave 1413 max 614 min
Histogram: 4 0 0 0 5 4 0 7 0 4

Total # of neighbors = 25632
Ave neighs/atom = 201.827
Neighbor list builds = 0
Dangerous builds = 0
Setting up quickmin style minimization ...
  Unit style    : metal
  Current step  : 0
Per MPI rank memory allocation (min/avg/max) = 5.112 | 5.237 | 5.362 Mbytes
Step Temp E_pair E_mol TotEng Press 
       0            0   -796.62431            0   -796.62431    14329.633 
       1   0.48125027   -796.62431            0   -796.61647    14336.015 
       2    3.6940889   -796.64825            0   -796.58808    14295.018 
       3    10.719156   -796.69424            0   -796.51966    14230.331 
       4    22.822288   -796.75644            0   -796.38474    14192.368 
       5    38.018089   -796.82276            0   -796.20357    14230.045 
       6    49.083551   -796.88311            0    -796.0837    14323.145 
       7    61.067441   -796.93903            0   -795.94444    14507.832 
       8    73.743969    -796.9893            0   -795.78825    14680.538 
       9    84.043871   -797.03286            0   -795.66405    14814.219 
      10    93.103053   -797.07042            0   -795.55407    14970.952 
      11    69.929258   -797.09202            0    -795.9531     14751.22 
      12    0.4796667    -797.0942            0   -797.08639    13824.741 
      13   0.69474388   -797.09672            0    -797.0854    13823.427 
      14   0.98279527   -797.09956            0   -797.08355     13826.27 
      15    1.3555937   -797.10276            0   -797.08068    13835.278 
      16    1.7090364    -797.1062            0   -797.07837    13848.638 
      17    2.0581381   -797.10985            0   -797.07633     13864.36 
      18    2.4350228   -797.11369            0   -797.07403    13881.695 
      19    2.8295616   -797.11771            0   -797.07163    13900.251 
      20    3.2344281   -797.12186            0   -797.06918    13919.934 
      21    3.6434561    -797.1261            0   -797.06676    13940.649 
      22    4.0508469   -797.13039            0   -797.06442    13962.264 
      23    4.4510608   -797.13469            0    -797.0622    13984.594 
      24     4.838847   -797.13895            0   -797.06014    14007.453 
      25    5.2094778   -797.14314            0    -797.0583    14030.637 
      26    5.5589043   -797.14724            0   -797.05671    14053.922 
      27    5.8838188   -797.15124            0   -797.05541    14077.101 
      28    6.1817957   -797.15515            0   -797.05447    14099.963 
      29    6.4513845   -797.15894            0   -797.05387    14122.242 
      30    6.6920272   -797.16256            0   -797.05357    14143.792 
      31    6.9035354   -797.16599            0   -797.05355    14164.475 
      32    7.0863962   -797.16922            0   -797.05381     14184.11 
      33    7.2417437   -797.17226            0   -797.05432    14202.656 
      34    7.3701264   -797.17508            0   -797.05505    14219.772 
      35    7.4736665   -797.17767            0   -797.05594    14236.061 
      36    7.5466211   -797.18004            0   -797.05713    14248.793 
      37    7.5614764    -797.1821            0   -797.05895    14268.968 
      38    6.2745208   -797.18281            0   -797.08062    14233.739 
      39  0.002740901   -797.18281            0   -797.18277    14150.559 
      40  0.012306774    -797.1829            0    -797.1827    14151.606 
      41  0.028616599   -797.18307            0    -797.1826     14153.69 
      42  0.049862107   -797.18328            0   -797.18247    14156.799 
      43  0.072820659   -797.18352            0   -797.18234     14160.84 
      44  0.092172675   -797.18375            0   -797.18225    14165.502 
      45   0.10090662   -797.18395            0   -797.18231    14170.027 
      46   0.10136087   -797.18415            0    -797.1825    14173.465 
      47   0.11122791   -797.18435            0   -797.18254    14175.843 
      48   0.13181507   -797.18457            0   -797.18242    14177.752 
      49   0.15646035   -797.18481            0   -797.18226    14179.558 
      50   0.18311897   -797.18506            0   -797.18208    14181.418 
      51    0.2114321   -797.18533            0   -797.18189    14183.372 
      52   0.24124135   -797.18561            0   -797.18168    14185.423 
      53   0.27239629    -797.1859            0   -797.18147    14187.566 
      54    0.3047427   -797.18621            0   -797.18124    14189.795 
      55   0.33812375   -797.18652            0   -797.18101    14192.099 
      56   0.37237734   -797.18684            0   -797.18078    14194.472 
      57   0.40733788   -797.18715            0   -797.18052    14196.888 
      58   0.44283052   -797.18746            0   -797.18025    14199.347 
      59   0.47869175   -797.18777            0   -797.17998     14201.84 
      60   0.51474698   -797.18808            0   -797.17969    14204.357 
      61   0.55082545   -797.18837            0    -797.1794    14206.884 
      62    0.5867519   -797.18865            0    -797.1791    14209.413 
      63   0.62236102   -797.18893            0    -797.1788    14211.932 
      64   0.65748264   -797.18921            0    -797.1785    14214.435 
      65   0.69195627   -797.18947            0    -797.1782    14216.915 
      66   0.72560359   -797.18973            0   -797.17791    14219.366 
      67    0.7582708   -797.18997            0   -797.17762    14221.764 
      68   0.78979652    -797.1902            0   -797.17733    14224.116 
      69   0.82008169   -797.19042            0   -797.17706    14226.392 
      70   0.84891074   -797.19062            0    -797.1768    14228.628 
      71   0.87632672   -797.19082            0   -797.17654    14230.709 
      72   0.90187073   -797.19099            0    -797.1763     14232.94 
      73   0.92699711   -797.19116            0   -797.17606    14234.386 
      74   0.95658962   -797.19127            0   -797.17569     14238.23 
      75    1.0923055   -797.19142            0   -797.17363    14235.144 
      76    1.5439187   -797.19106            0   -797.16591    14258.045 
      77  0.033729817    -797.1912            0   -797.19066     14235.59 
      78  0.042686978   -797.19134            0   -797.19064    14233.017 
      79  0.042722385   -797.19144            0   -797.19075    14230.529 
      80  0.032556629    -797.1915            0   -797.19097    14228.669 
      81  0.024318194   -797.19153            0   -797.19114     14227.79 
      82  0.024782585   -797.19155            0   -797.19115    14227.668 
      83  0.029185729   -797.19157            0    -797.1911    14227.882 
      84  0.034615098   -797.19159            0   -797.19103    14228.202 
      85  0.040503721   -797.19161            0   -797.19095    14228.555 
      86  0.046781471   -797.19163            0   -797.19087    14228.924 
      87  0.053422333   -797.19165            0   -797.19078    14229.312 
      88   0.06040149   -797.19167            0   -797.19068    14229.717 
      89  0.067693355   -797.19169            0   -797.19059    14230.141 
      90  0.075271209   -797.19171            0   -797.19049    14230.582 
      91  0.083107379   -797.19173            0   -797.19038    14231.038 
      92  0.091173332   -797.19175            0   -797.19027    14231.509 
      93   0.09943972   -797.19177            0   -797.19015    14231.992 
      94   0.10787656   -797.19179            0   -797.19004    14232.486 
      95   0.11645367   -797.19181            0   -797.18992    14232.989 
      96    0.1251402   -797.19183            0   -797.18979    14233.499 
      97   0.13390491   -797.19185            0   -797.18967    14234.016 
      98   0.14271681   -797.19187            0   -797.18954    14234.536 
      99   0.15154505   -797.19188            0   -797.18941    14235.061 
     100   0.16035876   -797.19189            0   -797.18928    14235.587 
     101   0.16912675   -797.19191            0   -797.18915     14236.11 
     102   0.17781833   -797.19192            0   -797.18902     14236.63 
     103   0.18640472   -797.19193            0   -797.18889    14237.147 
     104   0.19485633   -797.19194            0   -797.18876    14237.658 
     105   0.20314608   -797.19194            0   -797.18864    14238.159 
     106   0.21124387   -797.19195            0   -797.18851    14238.653 
     107   0.21912758   -797.19195            0   -797.18838    14239.133 
     108   0.22675279   -797.19195            0   -797.18826    14239.604 
     109   0.23407426   -797.19195            0   -797.18813    14240.051 
     110   0.24046586   -797.19194            0   -797.18802    14240.496 
     111   0.24056449   -797.19194            0   -797.18802    14240.768 
     112    0.1820944   -797.19192            0   -797.18896    14240.423 
     113  0.019908924   -797.19193            0    -797.1916    14238.204 
     114  0.011061614   -797.19192            0   -797.19174    14238.174 
     115  0.013055552   -797.19192            0   -797.19171    14238.267 
     116    0.0151028   -797.19192            0   -797.19167    14238.362 
     117  0.017275086   -797.19192            0   -797.19163    14238.462 
     118  0.019566256   -797.19191            0   -797.19159    14238.567 
     119    0.0219695   -797.19191            0   -797.19155    14238.678 
     120  0.024477646   -797.19191            0   -797.19151    14238.792 
     121  0.027083232    -797.1919            0   -797.19146    14238.911 
     122  0.029778506    -797.1919            0   -797.19141    14239.033 
     123  0.032555464   -797.19189            0   -797.19136    14239.157 
     124  0.035405887   -797.19188            0   -797.19131    14239.284 
     125  0.038321361   -797.19188            0   -797.19125    14239.413 
     126  0.041293313   -797.19187            0    -797.1912    14239.544 
     127  0.044313039   -797.19186            0   -797.19114    14239.675 
     128  0.047371744   -797.19185            0   -797.19108    14239.807 
     129  0.050460613   -797.19184            0   -797.19102    14239.938 
     130  0.053570709   -797.19183            0   -797.19096    14240.069 
     131  0.056693104   -797.19182            0    -797.1909    14240.198 
     132  0.059818926   -797.19181            0   -797.19084    14240.325 
     133  0.062939359    -797.1918            0   -797.19078    14240.449 
     134  0.066045669   -797.19179            0   -797.19071    14240.571 
     135  0.069129392   -797.19178            0   -797.19065    14240.689 
     136  0.072181977   -797.19176            0   -797.19059    14240.803 
     137  0.075195021   -797.19175            0   -797.19053    14240.912 
     138  0.078160215   -797.19174            0   -797.19046    14241.016 
     139  0.081069864   -797.19172            0    -797.1904    14241.113 
     140  0.083914317   -797.19171            0   -797.19034    14241.203 
     141  0.086674934   -797.19169            0   -797.19028    14241.288 
     142  0.089198345   -797.19167            0   -797.19022    14241.351 
     143   0.08981265   -797.19166            0   -797.19019    14241.415 
     144  0.070744084   -797.19164            0   -797.19049    14241.098 
     145 0.0079260456   -797.19164            0   -797.19151    14240.354 
     146 0.0029733697   -797.19163            0   -797.19159    14240.273 
     147 0.0036986383   -797.19163            0   -797.19157    14240.281 
     148 0.0043602126   -797.19163            0   -797.19156    14240.292 
     149 0.0050673232   -797.19162            0   -797.19154    14240.303 
     150 0.0058209076   -797.19162            0   -797.19152    14240.314 
     151 0.0066190877   -797.19161            0   -797.19151    14240.326 
     152 0.0074598679   -797.19161            0   -797.19149    14240.338 
     153 0.0083411445   -797.19161            0   -797.19147    14240.349 
     154 0.0092607307    -797.1916            0   -797.19145     14240.36 
     155  0.010216343   -797.19159            0   -797.19143    14240.371 
     156  0.011205569   -797.19159            0   -797.19141    14240.381 
     157  0.012225945   -797.19158            0   -797.19138    14240.391 
     158  0.013274932   -797.19158            0   -797.19136    14240.399 
     159   0.01434993   -797.19157            0   -797.19133    14240.406 
     160  0.015448284   -797.19156            0   -797.19131    14240.412 
     161  0.016567302   -797.19155            0   -797.19128    14240.417 
     162  0.017704221   -797.19155            0   -797.19126    14240.419 
     163  0.018856274   -797.19154            0   -797.19123     14240.42 
     164  0.020020665   -797.19153            0    -797.1912    14240.419 
     165  0.021194589   -797.19152            0   -797.19118    14240.415 
     166  0.022375234   -797.19151            0   -797.19115    14240.409 
     167  0.023559774    -797.1915            0   -797.19112      14240.4 
     168  0.024745435   -797.19149            0   -797.19109    14240.387 
     169  0.025929439   -797.19148            0   -797.19106    14240.372 
     170  0.027109001   -797.19147            0   -797.19103    14240.353 
     171  0.028281389   -797.19146            0     -797.191    14240.331 
     172  0.029443918   -797.19145            0   -797.19097    14240.305 
     173  0.030593921   -797.19144            0   -797.19094    14240.275 
     174  0.031728276   -797.19143            0   -797.19091     14240.24 
     175  0.032839435   -797.19142            0   -797.19088      14240.2 
     176  0.033871919   -797.19141            0   -797.19086    14240.155 
     177  0.034210282    -797.1914            0   -797.19084    14240.097 
     178    0.0274884   -797.19139            0   -797.19094    14239.949 
     179 0.0035967724   -797.19138            0   -797.19132     14239.61 
     180 0.00093366301   -797.19138            0   -797.19137    14239.564 
     181 0.0012278142   -797.19138            0   -797.19136    14239.556 
     182  0.001472466   -797.19138            0   -797.19135    14239.545 
     183 0.0017312237   -797.19137            0   -797.19135    14239.533 
     184 0.0020088663   -797.19137            0   -797.19134     14239.52 
     185 0.0023048915   -797.19137            0   -797.19133    14239.505 
     186  0.002618663   -797.19137            0   -797.19132    14239.489 
     187 0.0029495058   -797.19136            0   -797.19131    14239.472 
     188 0.0032967078   -797.19136            0   -797.19131    14239.454 
     189 0.0036595216   -797.19136            0    -797.1913    14239.434 
     190 0.0040371669   -797.19135            0   -797.19129    14239.412 
     191 0.0044288321   -797.19135            0   -797.19128    14239.389 
     192 0.0048336759   -797.19134            0   -797.19126    14239.364 
     193 0.0052508315   -797.19134            0   -797.19125    14239.338 
     194 0.0056794086   -797.19133            0   -797.19124     14239.31 
     195 0.0061184942   -797.19133            0   -797.19123     14239.28 
     196 0.0065671572   -797.19133            0   -797.19122    14239.248 
     197 0.0070244513   -797.19132            0   -797.19121    14239.214 
     198 0.0074894134   -797.19131            0   -797.19119    14239.178 
     199 0.0079610683   -797.19131            0   -797.19118     14239.14 
     200 0.0084384331    -797.1913            0   -797.19117      14239.1 
     201 0.0089205184    -797.1913            0   -797.19115    14239.058 
     202 0.0094063308   -797.19129            0   -797.19114    14239.013 
     203 0.0098948765   -797.19129            0   -797.19113    14238.966 
     204  0.010385163   -797.19128            0   -797.19111    14238.916 
     205  0.010876201   -797.19127            0    -797.1911    14238.864 
     206   0.01136701   -797.19127            0   -797.19108     14238.81 
     207  0.011856617   -797.19126            0   -797.19107    14238.752 
     208   0.01234405   -797.19125            0   -797.19105    14238.692 
     209  0.012828305   -797.19125            0   -797.19104     14238.63 
     210  0.013307865   -797.19124            0   -797.19102    14238.563 
     211  0.013775784   -797.19124            0   -797.19101    14238.491 
     212  0.014167604   -797.19123            0     -797.191    14238.416 
     213  0.013748717   -797.19122            0     -797.191     14238.33 
     214 0.0071907852   -797.19122            0    -797.1911    14238.185 
     215 0.00017917295   -797.19122            0   -797.19122    14238.083 
     216 0.00034099064   -797.19122            0   -797.19121    14238.073 
     217 0.00049151389   -797.19122            0   -797.19121     14238.06 
     218 0.00059638738   -797.19122            0   -797.19121    14238.045 
     219 0.00070249621   -797.19121            0    -797.1912    14238.029 
     220 0.00081639748   -797.19121            0    -797.1912    14238.011 
     221 0.00093804898   -797.19121            0    -797.1912    14237.991 
     222 0.0010672216   -797.19121            0   -797.19119     14237.97 
     223 0.0012036715   -797.19121            0   -797.19119    14237.947 
     224 0.0013471412   -797.19121            0   -797.19119    14237.923 
     225 0.0014973597   -797.19121            0   -797.19118    14237.898 
     226 0.0016540434    -797.1912            0   -797.19118     14237.87 
     227 0.0018168969    -797.1912            0   -797.19117    14237.841 
     228 0.0019856042    -797.1912            0   -797.19117     14237.81 
     229 0.0021598115    -797.1912            0   -797.19116    14237.777 
     230 0.0023392248    -797.1912            0   -797.19116    14237.742 
     231 0.0025235077   -797.19119            0   -797.19115    14237.705 
     232  0.002712315   -797.19119            0   -797.19115    14237.667 
     233 0.0029052951   -797.19119            0   -797.19114    14237.627 
     234 0.0031020887   -797.19119            0   -797.19114    14237.586 
     235 0.0033023324   -797.19119            0   -797.19113    14237.542 
     236 0.0035056562   -797.19118            0   -797.19113    14237.497 
     237 0.0037116891   -797.19118            0   -797.19112     14237.45 
     238 0.0039200535   -797.19118            0   -797.19112    14237.402 
     239 0.0041303754   -797.19118            0   -797.19111    14237.351 
     240 0.0043422685   -797.19117            0    -797.1911    14237.299 
     241 0.0045553694   -797.19117            0    -797.1911    14237.245 
     242 0.0047692663   -797.19117            0   -797.19109    14237.189 
     243 0.0049836699   -797.19117            0   -797.19108    14237.132 
     244 0.0051979987   -797.19116            0   -797.19108     14237.07 
     245  0.005412606   -797.19116            0   -797.19107    14237.016 
     246 0.0056265567   -797.19116            0   -797.19107    14236.931 
     247 0.0058561123   -797.19115            0   -797.19106    14236.932 
     248 0.0062109156   -797.19115            0   -797.19105    14236.655 
     249 0.0082191629   -797.19114            0   -797.19101     14237.32 
     250   0.02390185   -797.19116            0   -797.19078    14235.364 
     251  0.016097075   -797.19114            0   -797.19088    14237.059 
     252 0.00066040762   -797.19115            0   -797.19113     14236.58 
     253 0.00035220747   -797.19114            0   -797.19114    14236.555 
     254 0.00040567206   -797.19114            0   -797.19114    14236.539 
     255 0.00046274317   -797.19114            0   -797.19114    14236.521 
     256 0.00052316839   -797.19114            0   -797.19113    14236.502 
     257 0.00058683692   -797.19114            0   -797.19113    14236.481 
     258 0.00065364239   -797.19114            0   -797.19113    14236.459 
     259  0.000723471   -797.19114            0   -797.19113    14236.435 
     260 0.00079620466   -797.19114            0   -797.19113    14236.411 
     261 0.00087172003   -797.19114            0   -797.19112    14236.385 
     262 0.00094988946   -797.19114            0   -797.19112    14236.357 
     263 0.0010305808   -797.19114            0   -797.19112    14236.329 
     264 0.0011136582   -797.19113            0   -797.19112    14236.299 
     265 0.0011989818   -797.19113            0   -797.19111    14236.267 
     266 0.0012864084   -797.19113            0   -797.19111    14236.235 
     267 0.0013757919   -797.19113            0   -797.19111    14236.201 
     268 0.0014669832   -797.19113            0   -797.19111    14236.166 
     269 0.0015598307   -797.19113            0    -797.1911     14236.13 
     270 0.0016541812   -797.19113            0    -797.1911    14236.092 
     271 0.0017498789   -797.19113            0    -797.1911    14236.053 
     272 0.0018467686   -797.19112            0   -797.19109    14236.013 
     273 0.0019446904   -797.19112            0   -797.19109    14235.972 
     274 0.0020434901   -797.19112            0   -797.19109    14235.929 
     275 0.0021429958   -797.19112            0   -797.19108    14235.885 
     276 0.0022430768   -797.19112            0   -797.19108    14235.841 
     277 0.0023435117   -797.19112            0   -797.19108    14235.793 
     278 0.0024443936   -797.19111            0   -797.19107     14235.75 
     279 0.0025456209   -797.19111            0   -797.19107    14235.688 
     280   0.00265419   -797.19111            0   -797.19107    14235.677 
     281 0.0028246527   -797.19111            0   -797.19106    14235.503 
     282 0.0037388678    -797.1911            0   -797.19104    14235.875 
     283  0.010527957   -797.19112            0   -797.19095    14234.708 
     284 0.0069882905    -797.1911            0   -797.19099    14235.703 
     285 0.00030370805    -797.1911            0    -797.1911    14235.441 
     286 0.00016724351    -797.1911            0    -797.1911    14235.425 
     287 0.0001926739    -797.1911            0    -797.1911    14235.412 
     288 0.00021981862    -797.1911            0    -797.1911    14235.398 
     289 0.00024857638    -797.1911            0    -797.1911    14235.384 
     290 0.00027890028    -797.1911            0    -797.1911    14235.368 
     291 0.00031074367    -797.1911            0    -797.1911    14235.351 
     292 0.00034405692    -797.1911            0    -797.1911    14235.333 
     293 0.00037878835    -797.1911            0   -797.19109    14235.314 
     294 0.00041488397    -797.1911            0   -797.19109    14235.294 
     295 0.00045228776    -797.1911            0   -797.19109    14235.273 
     296 0.0004909417    -797.1911            0   -797.19109    14235.251 
     297 0.0005307859    -797.1911            0   -797.19109    14235.229 
     298 0.00057175874    -797.1911            0   -797.19109    14235.205 
     299 0.00061379697    -797.1911            0   -797.19109     14235.18 
     300 0.00065683583    -797.1911            0   -797.19108    14235.155 
     301 0.00070080917   -797.19109            0   -797.19108    14235.129 
     302 0.00074564952   -797.19109            0   -797.19108    14235.101 
     303 0.00079128845   -797.19109            0   -797.19108    14235.073 
     304 0.00083765622   -797.19109            0   -797.19108    14235.044 
     305 0.00088468282   -797.19109            0   -797.19108    14235.014 
     306 0.00093229635   -797.19109            0   -797.19108    14234.984 
     307 0.00098042727   -797.19109            0   -797.19107    14234.952 
     308 0.0010289997   -797.19109            0   -797.19107     14234.92 
     309 0.0010779501   -797.19109            0   -797.19107    14234.887 
     310 0.0011271871   -797.19109            0   -797.19107    14234.851 
     311 0.0011767206   -797.19109            0   -797.19107    14234.819 
     312 0.0012265314   -797.19108            0   -797.19106    14234.776 
     313 0.0012790962   -797.19108            0   -797.19106    14234.763 
     314 0.0013545898   -797.19108            0   -797.19106     14234.65 
     315 0.0016998039   -797.19108            0   -797.19105     14234.87 
     316 0.0043123161   -797.19109            0   -797.19102    14234.109 
     317 0.0037640196   -797.19107            0   -797.19101    14234.878 
     318 0.00023853693   -797.19108            0   -797.19107    14234.646 
     319 6.9798252e-05   -797.19108            0   -797.19108    14234.596 
     320 7.0928969e-05   -797.19108            0   -797.19108    14234.584 
     321 8.2448155e-05   -797.19108            0   -797.19108    14234.575 
     322 9.4883727e-05   -797.19108            0   -797.19108    14234.566 
     323 0.00010812117   -797.19108            0   -797.19108    14234.556 
     324 0.00012214145   -797.19108            0   -797.19108    14234.545 
     325 0.00013692427   -797.19108            0   -797.19108    14234.533 
     326 0.00015244822   -797.19108            0   -797.19107    14234.521 
     327 0.00016869077   -797.19108            0   -797.19107    14234.508 
     328 0.00018562837   -797.19108            0   -797.19107    14234.494 
     329 0.00020323641   -797.19108            0   -797.19107     14234.48 
     330 0.00022148936   -797.19108            0   -797.19107    14234.464 
     331 0.0002403607   -797.19108            0   -797.19107    14234.449 
     332 0.0002598231   -797.19107            0   -797.19107    14234.432 
     333 0.00027984835   -797.19107            0   -797.19107    14234.415 
     334 0.00030040747   -797.19107            0   -797.19107    14234.398 
     335 0.00032147074   -797.19107            0   -797.19107     14234.38 
     336 0.00034300779   -797.19107            0   -797.19107    14234.361 
     337 0.0003649876   -797.19107            0   -797.19107    14234.341 
     338 0.00038737859   -797.19107            0   -797.19107    14234.321 
     339 0.00041014866   -797.19107            0   -797.19106    14234.301 
     340 0.00043326524   -797.19107            0   -797.19106    14234.279 
     341 0.00045669536   -797.19107            0   -797.19106    14234.257 
     342 0.00048040571   -797.19107            0   -797.19106    14234.235 
     343 0.00050436267   -797.19107            0   -797.19106    14234.212 
     344 0.00052853244   -797.19107            0   -797.19106    14234.188 
     345 0.00055288083   -797.19107            0   -797.19106    14234.164 
     346 0.00057737412   -797.19107            0   -797.19106     14234.14 
     347 0.0006019763   -797.19107            0   -797.19106    14234.114 
     348 0.00062665281   -797.19107            0   -797.19106    14234.089 
     349 0.00065131321   -797.19106            0   -797.19105    14234.062 
     350 0.00067549611   -797.19106            0   -797.19105    14234.039 
     351 0.00069350371   -797.19106            0   -797.19105        14234 
     352 0.0006408387   -797.19106            0   -797.19105    14234.014 
     353 0.00021084363   -797.19106            0   -797.19106     14233.92 
     354 3.7610211e-06   -797.19106            0   -797.19106    14233.926 
     355 6.0405042e-06   -797.19106            0   -797.19106    14233.936 
     356 9.1422868e-06   -797.19106            0   -797.19106    14233.943 
     357 1.2715461e-05   -797.19106            0   -797.19106    14233.946 
     358 1.6414409e-05   -797.19106            0   -797.19106    14233.946 
     359 2.0350077e-05   -797.19106            0   -797.19106    14233.942 
     360 2.465035e-05   -797.19106            0   -797.19106    14233.938 
     361 2.934205e-05   -797.19106            0   -797.19106    14233.933 
     362 3.4421866e-05   -797.19106            0   -797.19106    14233.927 
     363 3.9882888e-05   -797.19106            0   -797.19106    14233.921 
     364 4.571767e-05   -797.19106            0   -797.19106    14233.914 
     365 5.1918266e-05   -797.19106            0   -797.19106    14233.907 
     366 5.8476212e-05   -797.19106            0   -797.19106      14233.9 
     367 6.5382538e-05   -797.19106            0   -797.19106    14233.892 
     368 7.2627784e-05   -797.19106            0   -797.19106    14233.883 
     369 8.0202009e-05   -797.19106            0   -797.19106    14233.874 
     370 8.8094815e-05   -797.19106            0   -797.19106    14233.865 
     371 9.6295358e-05   -797.19106            0   -797.19106    14233.855 
     372 0.00010479237   -797.19106            0   -797.19106    14233.845 
     373 0.0001135742   -797.19106            0   -797.19106    14233.834 
     374 0.00012262877   -797.19106            0   -797.19106    14233.823 
     375 0.00013194362   -797.19106            0   -797.19106    14233.812 
     376 0.00014150598   -797.19106            0   -797.19106      14233.8 
     377 0.00015130273   -797.19106            0   -797.19106    14233.788 
     378 0.00016132051   -797.19106            0   -797.19105    14233.775 
     379 0.00017154557   -797.19106            0   -797.19105    14233.762 
     380 0.00018196388   -797.19106            0   -797.19105    14233.748 
     381 0.0001925613   -797.19106            0   -797.19105    14233.735 
     382 0.00020332337   -797.19106            0   -797.19105     14233.72 
     383 0.0002142356   -797.19106            0   -797.19105    14233.706 
     384 0.00022528287   -797.19106            0   -797.19105    14233.691 
     385 0.00023645066   -797.19106            0   -797.19105    14233.675 
     386 0.00024772306   -797.19105            0   -797.19105     14233.66 
     387 0.00025908656   -797.19105            0   -797.19105    14233.644 
     388 0.00027052219   -797.19105            0   -797.19105    14233.627 
     389 0.00028202319   -797.19105            0   -797.19105    14233.611 
     390 0.00029355196   -797.19105            0   -797.19105    14233.594 
     391 0.00030514454   -797.19105            0   -797.19105    14233.577 
     392 0.00031655963   -797.19105            0   -797.19105    14233.557 
     393 0.00032755898   -797.19105            0   -797.19105    14233.548 
     394 0.00032771866   -797.19105            0   -797.19105    14233.498 
     395 0.00022555887   -797.19105            0   -797.19105    14233.564 
     396 5.5848003e-06   -797.19105            0   -797.19105    14233.545 
     397 6.8688687e-06   -797.19105            0   -797.19105    14233.528 
     398 7.5626096e-06   -797.19105            0   -797.19105    14233.513 
     399 8.2166042e-06   -797.19105            0   -797.19105    14233.504 
     400 9.6465432e-06   -797.19105            0   -797.19105    14233.498 
     401 1.1584547e-05   -797.19105            0   -797.19105    14233.495 
     402 1.3756008e-05   -797.19105            0   -797.19105    14233.491 
     403 1.6107639e-05   -797.19105            0   -797.19105    14233.487 
     404 1.8633374e-05   -797.19105            0   -797.19105    14233.483 
     405 2.1330233e-05   -797.19105            0   -797.19105    14233.479 
     406 2.4194796e-05   -797.19105            0   -797.19105    14233.475 
     407 2.7223329e-05   -797.19105            0   -797.19105     14233.47 
     408 3.0411859e-05   -797.19105            0   -797.19105    14233.464 
     409 3.3756191e-05   -797.19105            0   -797.19105    14233.459 
     410 3.7251919e-05   -797.19105            0   -797.19105    14233.453 
     411 4.0894431e-05   -797.19105            0   -797.19105    14233.447 
     412 4.4678918e-05   -797.19105            0   -797.19105    14233.441 
     413 4.8600378e-05   -797.19105            0   -797.19105    14233.434 
     414 5.2653628e-05   -797.19105            0   -797.19105    14233.427 
     415 5.6833306e-05   -797.19105            0   -797.19105     14233.42 
     416 6.1133885e-05   -797.19105            0   -797.19105    14233.413 
     417 6.5549676e-05   -797.19105            0   -797.19105    14233.405 
     418 7.0074829e-05   -797.19105            0   -797.19105    14233.397 
     419 7.4703366e-05   -797.19105            0   -797.19105    14233.389 
     420 7.9429178e-05   -797.19105            0   -797.19105     14233.38 
     421 8.4246025e-05   -797.19105            0   -797.19105    14233.372 
     422 8.9147553e-05   -797.19105            0   -797.19105    14233.363 
     423 9.4127302e-05   -797.19105            0   -797.19105    14233.354 
     424 9.9178716e-05   -797.19105            0   -797.19105    14233.344 
     425 0.00010429515   -797.19105            0   -797.19105    14233.335 
     426 0.00010946989   -797.19105            0   -797.19105    14233.325 
     427 0.00011469615   -797.19105            0   -797.19105    14233.315 
     428 0.00011996709   -797.19105            0   -797.19104    14233.304 
     429 0.0001252758   -797.19105            0   -797.19104    14233.294 
     430 0.00013061537   -797.19105            0   -797.19104    14233.283 
     431 0.00013597858   -797.19105            0   -797.19104    14233.272 
     432 0.00014135696   -797.19105            0   -797.19104    14233.261 
     433 0.00014672092   -797.19105            0   -797.19104     14233.25 
     434 0.00015179722   -797.19105            0   -797.19104    14233.239 
     435 0.00015287627   -797.19105            0   -797.19104    14233.225 
     436 0.00010922952   -797.19104            0   -797.19104    14233.224 
     437 5.626861e-06   -797.19104            0   -797.19104    14233.215 
     438 8.5322016e-06   -797.19104            0   -797.19104    14233.211 
     439 9.7230973e-06   -797.19104            0   -797.19104    14233.209 
     440 1.1056573e-05   -797.19104            0   -797.19104    14233.206 
     441 1.2470221e-05   -797.19104            0   -797.19104    14233.203 
     442 1.3960692e-05   -797.19104            0   -797.19104    14233.199 
     443 1.5526056e-05   -797.19104            0   -797.19104    14233.196 
     444 1.7164274e-05   -797.19104            0   -797.19104    14233.192 
     445 1.8873254e-05   -797.19104            0   -797.19104    14233.188 
     446 2.0650789e-05   -797.19104            0   -797.19104    14233.184 
     447 2.2494596e-05   -797.19104            0   -797.19104     14233.18 
     448 2.4402294e-05   -797.19104            0   -797.19104    14233.176 
     449 2.6371428e-05   -797.19104            0   -797.19104    14233.171 
     450 2.839945e-05   -797.19104            0   -797.19104    14233.166 
     451 3.0483748e-05   -797.19104            0   -797.19104    14233.161 
     452 3.2621623e-05   -797.19104            0   -797.19104    14233.156 
     453 3.4810323e-05   -797.19104            0   -797.19104    14233.151 
     454 3.7047001e-05   -797.19104            0   -797.19104    14233.146 
     455 3.9328788e-05   -797.19104            0   -797.19104     14233.14 
     456 4.1652651e-05   -797.19104            0   -797.19104    14233.135 
     457 4.4015545e-05   -797.19104            0   -797.19104    14233.129 
     458 4.6413538e-05   -797.19104            0   -797.19104    14233.123 
     459 4.8840356e-05   -797.19104            0   -797.19104    14233.117 
     460 5.1270614e-05   -797.19104            0   -797.19104     14233.11 
     461 5.3565131e-05   -797.19104            0   -797.19104    14233.105 
     462 5.4741942e-05   -797.19104            0   -797.19104    14233.096 
     463 4.8390892e-05   -797.19104            0   -797.19104    14233.094 
     464 1.8776135e-05   -797.19104            0   -797.19104    14233.084 
     465 2.6919844e-06   -797.19104            0   -797.19104    14233.085 
     466 3.7436198e-06   -797.19104            0   -797.19104    14233.084 
     467 4.404766e-06   -797.19104            0   -797.19104    14233.083 
     468 5.1084277e-06   -797.19104            0   -797.19104    14233.081 
     469 5.8609684e-06   -797.19104            0   -797.19104    14233.079 
     470 6.6613884e-06   -797.19104            0   -797.19104    14233.077 
     471 7.5086827e-06   -797.19104            0   -797.19104    14233.074 
     472 8.4017837e-06   -797.19104            0   -797.19104    14233.072 
     473 9.3395632e-06   -797.19104            0   -797.19104    14233.069 
     474 1.0320834e-05   -797.19104            0   -797.19104    14233.067 
     475 1.1344352e-05   -797.19104            0   -797.19104    14233.064 
     476 1.2408817e-05   -797.19104            0   -797.19104    14233.061 
     477 1.3512875e-05   -797.19104            0   -797.19104    14233.058 
     478 1.4655119e-05   -797.19104            0   -797.19104    14233.055 
     479 1.5834094e-05   -797.19104            0   -797.19104    14233.051 
     480 1.7048295e-05   -797.19104            0   -797.19104    14233.048 
     481 1.8296172e-05   -797.19104            0   -797.19104    14233.044 
     482 1.9576129e-05   -797.19104            0   -797.19104     14233.04 
     483 2.0886531e-05   -797.19104            0   -797.19104    14233.037 
     484 2.2225701e-05   -797.19104            0   -797.19104    14233.033 
     485 2.3591925e-05   -797.19104            0   -797.19104    14233.029 
     486 2.4983457e-05   -797.19104            0   -797.19104    14233.025 
     487 2.6398516e-05   -797.19104            0   -797.19104     14233.02 
     488 2.7835287e-05   -797.19104            0   -797.19104    14233.016 
     489 2.9291929e-05   -797.19104            0   -797.19104    14233.011 
     490 3.0766576e-05   -797.19104            0   -797.19104    14233.007 
     491 3.2257338e-05   -797.19104            0   -797.19104    14233.002 
     492 3.3762289e-05   -797.19104            0   -797.19104    14232.998 
     493 3.5279391e-05   -797.19104            0   -797.19104    14232.993 
     494 3.6805687e-05   -797.19104            0   -797.19104    14232.988 
     495 3.8329196e-05   -797.19104            0   -797.19104    14232.983 
     496 3.9738616e-05   -797.19104            0   -797.19104    14232.977 
     497 3.9764264e-05   -797.19104            0   -797.19104    14232.973 
     498 2.7067927e-05   -797.19104            0   -797.19104    14232.967 
     499 1.6508716e-06   -797.19104            0   -797.19104    14232.967 
     500 2.4886502e-06   -797.19104            0   -797.19104    14232.966 
     501 2.8577642e-06   -797.19104            0   -797.19104    14232.964 
     502 3.2629722e-06   -797.19104            0   -797.19104    14232.963 
     503 3.6931753e-06   -797.19104            0   -797.19104    14232.962 
     504 4.1476416e-06   -797.19104            0   -797.19104     14232.96 
     505 4.6257938e-06   -797.19104            0   -797.19104    14232.958 
     506 5.1270325e-06   -797.19104            0   -797.19104    14232.957 
     507 5.6507289e-06   -797.19104            0   -797.19104    14232.955 
     508 6.1962248e-06   -797.19104            0   -797.19104    14232.953 
     509 6.7628335e-06   -797.19104            0   -797.19104    14232.951 
     510 7.3498404e-06   -797.19104            0   -797.19104    14232.949 
     511 7.9565041e-06   -797.19104            0   -797.19104    14232.946 
     512 8.5820572e-06   -797.19104            0   -797.19104    14232.944 
     513 9.2257076e-06   -797.19104            0   -797.19104    14232.942 
     514 9.8866392e-06   -797.19104            0   -797.19104    14232.939 
     515 1.0564013e-05   -797.19104            0   -797.19104    14232.937 
     516 1.1256968e-05   -797.19104            0   -797.19104    14232.934 
     517 1.1964622e-05   -797.19104            0   -797.19104    14232.932 
     518 1.2686071e-05   -797.19104            0   -797.19104    14232.929 
     519 1.3420386e-05   -797.19104            0   -797.19104    14232.926 
     520 1.4166577e-05   -797.19104            0   -797.19104    14232.923 
     521 1.4923429e-05   -797.19104            0   -797.19104     14232.92 
     522 1.5688407e-05   -797.19104            0   -797.19104    14232.917 
     523 1.6450604e-05   -797.19104            0   -797.19104    14232.914 
     524 1.7138409e-05   -797.19104            0   -797.19104    14232.911 
     525 1.7221382e-05   -797.19104            0   -797.19104    14232.908 
     526 1.3382345e-05   -797.19104            0   -797.19104    14232.906 
     527 2.9391746e-06   -797.19104            0   -797.19104    14232.904 
     528  1.06263e-06   -797.19104            0   -797.19104    14232.903 
     529 1.2937579e-06   -797.19104            0   -797.19104    14232.902 
     530 1.5073124e-06   -797.19104            0   -797.19104    14232.901 
     531 1.7362762e-06   -797.19104            0   -797.19104      14232.9 
     532 1.9803152e-06   -797.19104            0   -797.19104    14232.899 
     533 2.2391276e-06   -797.19104            0   -797.19104    14232.898 
     534 2.5123928e-06   -797.19104            0   -797.19104    14232.897 
     535 2.7997708e-06   -797.19104            0   -797.19104    14232.896 
     536 3.1009033e-06   -797.19104            0   -797.19104    14232.895 
     537 3.4154139e-06   -797.19104            0   -797.19104    14232.893 
     538 3.7429085e-06   -797.19104            0   -797.19104    14232.892 
     539 4.0829758e-06   -797.19104            0   -797.19104    14232.891 
     540 4.4351882e-06   -797.19104            0   -797.19104    14232.889 
     541 4.7991015e-06   -797.19104            0   -797.19104    14232.887 
     542 5.1742562e-06   -797.19104            0   -797.19104    14232.886 
     543 5.5601779e-06   -797.19104            0   -797.19104    14232.884 
     544 5.9563776e-06   -797.19104            0   -797.19104    14232.882 
     545 6.3623525e-06   -797.19104            0   -797.19104    14232.881 
     546 6.7775865e-06   -797.19104            0   -797.19104    14232.879 
     547 7.2015511e-06   -797.19104            0   -797.19104    14232.877 
     548 7.6337055e-06   -797.19104            0   -797.19104    14232.875 
     549 8.0734976e-06   -797.19104            0   -797.19104    14232.873 
     550 8.5203648e-06   -797.19104            0   -797.19104    14232.871 
     551 8.9737338e-06   -797.19104            0   -797.19104    14232.869 
     552 9.4330227e-06   -797.19104            0   -797.19104    14232.866 
     553 9.8976389e-06   -797.19104            0   -797.19104    14232.864 
     554 1.0366983e-05   -797.19104            0   -797.19104    14232.862 
     555 1.0840429e-05   -797.19104            0   -797.19104     14232.86 
     556 1.1317249e-05   -797.19104            0   -797.19104    14232.857 
     557 1.1795568e-05   -797.19104            0   -797.19104    14232.855 
     558 1.2261965e-05   -797.19104            0   -797.19104    14232.853 
     559 1.2566711e-05   -797.19104            0   -797.19104     14232.85 
     560 1.1072446e-05   -797.19104            0   -797.19104    14232.848 
     561 2.5432855e-06   -797.19104            0   -797.19104    14232.846 
     562 1.0722376e-07   -797.19104            0   -797.19104    14232.846 
     563 1.8087104e-07   -797.19104            0   -797.19104    14232.846 
     564 2.6646684e-07   -797.19104            0   -797.19104    14232.846 
     565 3.4799726e-07   -797.19104            0   -797.19104    14232.845 
     566 4.3064322e-07   -797.19104            0   -797.19104    14232.845 
     567 5.2008278e-07   -797.19104            0   -797.19104    14232.844 
     568 6.1749055e-07   -797.19104            0   -797.19104    14232.844 
     569 7.2286316e-07   -797.19104            0   -797.19104    14232.843 
     570 8.3607504e-07   -797.19104            0   -797.19104    14232.843 
     571 9.5698706e-07   -797.19104            0   -797.19104    14232.842 
     572  1.08545e-06   -797.19104            0   -797.19104    14232.842 
     573 1.2213047e-06   -797.19104            0   -797.19104    14232.841 
     574 1.3643822e-06   -797.19104            0   -797.19104     14232.84 
     575 1.514504e-06   -797.19104            0   -797.19104    14232.839 
     576 1.6714824e-06   -797.19104            0   -797.19104    14232.838 
     577 1.8351203e-06   -797.19104            0   -797.19104    14232.837 
     578 2.0052118e-06   -797.19104            0   -797.19104    14232.837 
     579 2.1815423e-06   -797.19104            0   -797.19104    14232.836 
     580 2.3638889e-06   -797.19104            0   -797.19104    14232.835 
     581 2.5520203e-06   -797.19104            0   -797.19104    14232.834 
     582 2.7456974e-06   -797.19104            0   -797.19104    14232.832 
     583 2.9446735e-06   -797.19104            0   -797.19104    14232.831 
     584 3.1486945e-06   -797.19104            0   -797.19104     14232.83 
     585 3.3574991e-06   -797.19104            0   -797.19104    14232.829 
     586 3.5708192e-06   -797.19104            0   -797.19104    14232.828 
     587 3.7883802e-06   -797.19104            0   -797.19104    14232.826 
     588 4.0099015e-06   -797.19104            0   -797.19104    14232.825 
     589 4.2350965e-06   -797.19104            0   -797.19104    14232.824 
     590 4.4636721e-06   -797.19104            0   -797.19104    14232.823 
     591 4.6953302e-06   -797.19104            0   -797.19104    14232.821 
     592 4.9297678e-06   -797.19104            0   -797.19104     14232.82 
     593 5.1666767e-06   -797.19104            0   -797.19104    14232.818 
     594 5.4057445e-06   -797.19104            0   -797.19104    14232.817 
     595 5.6466525e-06   -797.19104            0   -797.19104    14232.815 
     596 5.8890841e-06   -797.19104            0   -797.19104    14232.814 
     597 6.1326994e-06   -797.19104            0   -797.19104    14232.812 
     598 6.3772119e-06   -797.19104            0   -797.19104    14232.811 
     599 6.622103e-06   -797.19104            0   -797.19104    14232.809 
     600 6.8670969e-06   -797.19104            0   -797.19104    14232.807 
     601 7.1029213e-06   -797.19104            0   -797.19104    14232.806 
     602 7.2235655e-06   -797.19104            0   -797.19104    14232.803 
     603 5.6400053e-06   -797.19104            0   -797.19104    14232.807 
     604 3.4804514e-07   -797.19104            0   -797.19104    14232.804 
     605 3.542153e-07   -797.19104            0   -797.19104    14232.802 
     606 3.6434674e-07   -797.19104            0   -797.19104    14232.802 
     607 4.1897109e-07   -797.19104            0   -797.19104    14232.801 
     608 4.7718249e-07   -797.19104            0   -797.19104    14232.801 
     609 5.3887154e-07   -797.19104            0   -797.19104    14232.801 
     610 6.0395976e-07   -797.19104            0   -797.19104      14232.8 
     611 6.7236521e-07   -797.19104            0   -797.19104      14232.8 
     612 7.4400124e-07   -797.19104            0   -797.19104    14232.799 
     613 8.1877692e-07   -797.19104            0   -797.19104    14232.799 
     614 8.9659692e-07   -797.19104            0   -797.19104    14232.798 
     615 9.7736172e-07   -797.19104            0   -797.19104    14232.797 
     616 1.0609677e-06   -797.19104            0   -797.19104    14232.797 
     617 1.1473071e-06   -797.19104            0   -797.19104    14232.796 
     618 1.2362683e-06   -797.19104            0   -797.19104    14232.796 
     619 1.327736e-06   -797.19104            0   -797.19104    14232.795 
     620 1.4215911e-06   -797.19104            0   -797.19104    14232.794 
     621 1.5177108e-06   -797.19104            0   -797.19104    14232.793 
     622 1.615969e-06   -797.19104            0   -797.19104    14232.793 
     623 1.7162361e-06   -797.19104            0   -797.19104    14232.792 
     624 1.8183792e-06   -797.19104            0   -797.19104    14232.791 
     625 1.9222623e-06   -797.19104            0   -797.19104     14232.79 
     626 2.0277444e-06   -797.19104            0   -797.19104     14232.79 
     627 2.1346768e-06   -797.19104            0   -797.19104    14232.789 
     628 2.2428633e-06   -797.19104            0   -797.19104    14232.788 
     629 2.3518355e-06   -797.19104            0   -797.19104    14232.787 
     630 2.4589719e-06   -797.19104            0   -797.19104    14232.786 
     631 2.5441506e-06   -797.19104            0   -797.19104    14232.785 
     632 2.4404125e-06   -797.19104            0   -797.19104    14232.785 
     633 1.3218216e-06   -797.19104            0   -797.19104    14232.783 
     634 1.0756031e-07   -797.19104            0   -797.19104    14232.783 
     635 1.6667838e-07   -797.19104            0   -797.19104    14232.783 
     636 1.9541677e-07   -797.19104            0   -797.19104    14232.783 
     637 2.2625842e-07   -797.19104            0   -797.19104    14232.783 
     638 2.5921166e-07   -797.19104            0   -797.19104    14232.783 
     639 2.9423455e-07   -797.19104            0   -797.19104    14232.782 
     640 3.312825e-07   -797.19104            0   -797.19104    14232.782 
     641 3.7030815e-07   -797.19104            0   -797.19104    14232.782 
     642 4.1126139e-07   -797.19104            0   -797.19104    14232.781 
     643 4.5408941e-07   -797.19104            0   -797.19104    14232.781 
     644 4.9873672e-07   -797.19104            0   -797.19104    14232.781 
     645 5.4514526e-07   -797.19104            0   -797.19104     14232.78 
     646 5.9325439e-07   -797.19104            0   -797.19104     14232.78 
     647 6.4300098e-07   -797.19104            0   -797.19104    14232.779 
     648 6.9431946e-07   -797.19104            0   -797.19104    14232.779 
     649 7.4714187e-07   -797.19104            0   -797.19104    14232.778 
     650 8.0139793e-07   -797.19104            0   -797.19104    14232.778 
     651 8.5701506e-07   -797.19104            0   -797.19104    14232.777 
     652 9.1391849e-07   -797.19104            0   -797.19104    14232.777 
     653 9.7203126e-07   -797.19104            0   -797.19104    14232.776 
     654 1.0312743e-06   -797.19104            0   -797.19104    14232.776 
     655 1.0915666e-06   -797.19104            0   -797.19104    14232.775 
     656 1.1528249e-06   -797.19104            0   -797.19104    14232.775 
     657 1.2149641e-06   -797.19104            0   -797.19104    14232.774 
     658 1.2778973e-06   -797.19104            0   -797.19104    14232.774 
     659 1.3415351e-06   -797.19104            0   -797.19104    14232.773 
     660 1.4057854e-06   -797.19104            0   -797.19104    14232.772 
     661 1.4705411e-06   -797.19104            0   -797.19104    14232.772 
     662 1.5355905e-06   -797.19104            0   -797.19104    14232.771 
     663 1.5996841e-06   -797.19104            0   -797.19104     14232.77 
     664 1.6507679e-06   -797.19104            0   -797.19104     14232.77 
     665 1.5618464e-06   -797.19104            0   -797.19104    14232.769 
     666 6.5944498e-07   -797.19104            0   -797.19104    14232.769 
     667 1.8198105e-08   -797.19104            0   -797.19104    14232.769 
     668 3.299851e-08   -797.19104            0   -797.19104    14232.769 
     669 4.9581378e-08   -797.19104            0   -797.19104    14232.768 
     670 6.2998332e-08   -797.19104            0   -797.19104    14232.768 
     671 7.6243989e-08   -797.19104            0   -797.19104    14232.768 
     672 9.0570754e-08   -797.19104            0   -797.19104    14232.768 
     673 1.0606749e-07   -797.19104            0   -797.19104    14232.768 
     674 1.2271668e-07   -797.19104            0   -797.19104    14232.768 
     675 1.4049677e-07   -797.19104            0   -797.19104    14232.767 
     676 1.5938457e-07   -797.19104            0   -797.19104    14232.767 
     677 1.7935531e-07   -797.19104            0   -797.19104    14232.767 
     678 2.0038267e-07   -797.19104            0   -797.19104    14232.767 
     679 2.2243876e-07   -797.19104            0   -797.19104    14232.767 
     680 2.4549419e-07   -797.19104            0   -797.19104    14232.766 
     681 2.6951806e-07   -797.19104            0   -797.19104    14232.766 
     682  2.94478e-07   -797.19104            0   -797.19104    14232.766 
     683 3.2034021e-07   -797.19104            0   -797.19104    14232.766 
     684 3.4706943e-07   -797.19104            0   -797.19104    14232.765 
     685 3.7462902e-07   -797.19104            0   -797.19104    14232.765 
     686 4.0298096e-07   -797.19104            0   -797.19104    14232.765 
     687 4.320859e-07   -797.19104            0   -797.19104    14232.764 
     688 4.6190313e-07   -797.19104            0   -797.19104    14232.764 
     689 4.9239066e-07   -797.19104            0   -797.19104    14232.764 
     690 5.2350522e-07   -797.19104            0   -797.19104    14232.763 
     691 5.5520224e-07   -797.19104            0   -797.19104    14232.763 
     692 5.8743598e-07   -797.19104            0   -797.19104    14232.763 
     693 6.2015938e-07   -797.19104            0   -797.19104    14232.762 
     694 6.5332431e-07   -797.19104            0   -797.19104    14232.762 
     695 6.8688117e-07   -797.19104            0   -797.19104    14232.761 
     696 7.2077968e-07   -797.19104            0   -797.19104    14232.761 
     697 7.5496738e-07   -797.19104            0   -797.19104    14232.761 
     698 7.8939266e-07   -797.19104            0   -797.19104     14232.76 
     699 8.2399812e-07   -797.19104            0   -797.19104     14232.76 
     700 8.5873602e-07   -797.19104            0   -797.19104    14232.759 
     701 8.9352923e-07   -797.19104            0   -797.19104    14232.759 
     702  9.28366e-07   -797.19104            0   -797.19104    14232.759 
     703 9.6294218e-07   -797.19104            0   -797.19104    14232.758 
     704 9.9637628e-07   -797.19104            0   -797.19104    14232.757 
     705 1.0081969e-06   -797.19104            0   -797.19104    14232.758 
     706 7.6350354e-07   -797.19104            0   -797.19104    14232.755 
     707 4.5874195e-08   -797.19104            0   -797.19104    14232.756 
     708 5.3831578e-08   -797.19104            0   -797.19104    14232.757 
     709 6.1952785e-08   -797.19104            0   -797.19104    14232.756 
     710 7.0793127e-08   -797.19104            0   -797.19104    14232.756 
     711 8.0174646e-08   -797.19104            0   -797.19104    14232.756 
     712 9.0082719e-08   -797.19104            0   -797.19104    14232.756 
     713 1.0050345e-07   -797.19104            0   -797.19104    14232.756 
     714 1.1142208e-07   -797.19104            0   -797.19104    14232.756 
     715 1.2282322e-07   -797.19104            0   -797.19104    14232.756 
     716 1.346906e-07   -797.19104            0   -797.19104    14232.756 
     717 1.4700723e-07   -797.19104            0   -797.19104    14232.755 
     718 1.5975528e-07   -797.19104            0   -797.19104    14232.755 
     719 1.7291622e-07   -797.19104            0   -797.19104    14232.755 
     720 1.864707e-07   -797.19104            0   -797.19104    14232.755 
     721 2.003987e-07   -797.19104            0   -797.19104    14232.755 
     722 2.1467933e-07   -797.19104            0   -797.19104    14232.754 
     723 2.2929115e-07   -797.19104            0   -797.19104    14232.754 
     724 2.4421168e-07   -797.19104            0   -797.19104    14232.754 
     725 2.594181e-07   -797.19104            0   -797.19104    14232.754 
     726 2.7488565e-07   -797.19104            0   -797.19104    14232.754 
     727 2.905885e-07   -797.19104            0   -797.19104    14232.753 
     728 3.0648657e-07   -797.19104            0   -797.19104    14232.753 
     729 3.2248577e-07   -797.19104            0   -797.19104    14232.753 
     730 3.3808253e-07   -797.19104            0   -797.19104    14232.753 
     731 3.500456e-07   -797.19104            0   -797.19104    14232.752 
     732 3.3547643e-07   -797.19104            0   -797.19104    14232.752 
     733 1.9578035e-07   -797.19104            0   -797.19104    14232.751 
     734 2.598937e-08   -797.19104            0   -797.19104    14232.752 
     735 3.1039141e-08   -797.19104            0   -797.19104    14232.752 
     736 3.608426e-08   -797.19104            0   -797.19104    14232.752 
     737 4.1488175e-08   -797.19104            0   -797.19104    14232.752 
     738 4.7238382e-08   -797.19104            0   -797.19104    14232.752 
     739 5.3326418e-08   -797.19104            0   -797.19104    14232.751 
     740 5.9743417e-08   -797.19104            0   -797.19104    14232.751 
     741 6.6479945e-08   -797.19104            0   -797.19104    14232.751 
     742 7.3526028e-08   -797.19104            0   -797.19104    14232.751 
     743 8.0871149e-08   -797.19104            0   -797.19104    14232.751 
     744 8.8504254e-08   -797.19104            0   -797.19104    14232.751 
     745 9.6413757e-08   -797.19104            0   -797.19104    14232.751 
     746 1.0458755e-07   -797.19104            0   -797.19104    14232.751 
     747 1.1301299e-07   -797.19104            0   -797.19104    14232.751 
     748 1.2167693e-07   -797.19104            0   -797.19104     14232.75 
     749 1.3056571e-07   -797.19104            0   -797.19104     14232.75 
     750 1.3966514e-07   -797.19104            0   -797.19104     14232.75 
     751 1.4896055e-07   -797.19104            0   -797.19104     14232.75 
     752 1.5843676e-07   -797.19104            0   -797.19104     14232.75 
     753 1.6807804e-07   -797.19104            0   -797.19104     14232.75 
     754 1.7786824e-07   -797.19104            0   -797.19104    14232.749 
     755 1.877905e-07   -797.19104            0   -797.19104    14232.749 
     756 1.9782735e-07   -797.19104            0   -797.19104    14232.749 
     757 2.0795775e-07   -797.19104            0   -797.19104    14232.749 
     758 2.1814408e-07   -797.19104            0   -797.19104    14232.749 
     759 2.2820795e-07   -797.19104            0   -797.19104    14232.749 
     760 2.3681665e-07   -797.19104            0   -797.19104    14232.748 
     761 2.3234683e-07   -797.19104            0   -797.19104    14232.748 
     762 1.4489582e-07   -797.19104            0   -797.19104    14232.748 
     763 1.325102e-08   -797.19104            0   -797.19104    14232.748 
     764 1.7910465e-08   -797.19104            0   -797.19104    14232.748 
     765 2.0877227e-08   -797.19104            0   -797.19104    14232.748 
     766 2.4089639e-08   -797.19104            0   -797.19104    14232.748 
     767 2.7513413e-08   -797.19104            0   -797.19104    14232.748 
     768 3.1142774e-08   -797.19104            0   -797.19104    14232.748 
     769 3.4972065e-08   -797.19104            0   -797.19104    14232.748 
     770 3.8995274e-08   -797.19104            0   -797.19104    14232.748 
     771 4.3206037e-08   -797.19104            0   -797.19104    14232.747 
     772 4.7597629e-08   -797.19104            0   -797.19104    14232.747 
     773 5.2162972e-08   -797.19104            0   -797.19104    14232.747 
     774 5.6894636e-08   -797.19104            0   -797.19104    14232.747 
     775 6.1784841e-08   -797.19104            0   -797.19104    14232.747 
     776 6.6825457e-08   -797.19104            0   -797.19104    14232.747 
     777 7.2008014e-08   -797.19104            0   -797.19104    14232.747 
     778 7.732369e-08   -797.19104            0   -797.19104    14232.747 
     779 8.2763335e-08   -797.19104            0   -797.19104    14232.747 
     780 8.8317439e-08   -797.19104            0   -797.19104    14232.747 
     781 9.3976174e-08   -797.19104            0   -797.19104    14232.747 
     782 9.9729309e-08   -797.19104            0   -797.19104    14232.746 
     783 1.0556621e-07   -797.19104            0   -797.19104    14232.746 
     784 1.1147512e-07   -797.19104            0   -797.19104    14232.746 
     785 1.1744004e-07   -797.19104            0   -797.19104    14232.746 
     786 1.2341709e-07   -797.19104            0   -797.19104    14232.746 
     787 1.2916633e-07   -797.19104            0   -797.19104    14232.746 
     788 1.3289596e-07   -797.19104            0   -797.19104    14232.746 
     789 1.2118455e-07   -797.19104            0   -797.19104    14232.745 
     790 5.0065015e-08   -797.19104            0   -797.19104    14232.746 
     791 4.7517966e-09   -797.19104            0   -797.19104    14232.745 
     792 7.5377123e-09   -797.19104            0   -797.19104    14232.745 
     793 9.2126266e-09   -797.19104            0   -797.19104    14232.745 
     794 1.0932279e-08   -797.19104            0   -797.19104    14232.745 
     795 1.2789849e-08   -797.19104            0   -797.19104    14232.745 
     796 1.4782305e-08   -797.19104            0   -797.19104    14232.745 
     797 1.6906368e-08   -797.19104            0   -797.19104    14232.745 
     798 1.9158513e-08   -797.19104            0   -797.19104    14232.745 
     799 2.1534967e-08   -797.19104            0   -797.19104    14232.745 
     800 2.4031709e-08   -797.19104            0   -797.19104    14232.745 
     801 2.6644475e-08   -797.19104            0   -797.19104    14232.745 
     802 2.9368755e-08   -797.19104            0   -797.19104    14232.745 
     803 3.2199802e-08   -797.19104            0   -797.19104    14232.745 
     804 3.5132623e-08   -797.19104            0   -797.19104    14232.745 
     805 3.8161993e-08   -797.19104            0   -797.19104    14232.745 
     806 4.1282444e-08   -797.19104            0   -797.19104    14232.745 
     807 4.4488277e-08   -797.19104            0   -797.19104    14232.745 
     808 4.7773556e-08   -797.19104            0   -797.19104    14232.745 
     809 5.1132116e-08   -797.19104            0   -797.19104    14232.744 
     810 5.4557558e-08   -797.19104            0   -797.19104    14232.744 
     811 5.8043255e-08   -797.19104            0   -797.19104    14232.744 
     812 6.1582349e-08   -797.19104            0   -797.19104    14232.744 
     813 6.5167758e-08   -797.19104            0   -797.19104    14232.744 
     814 6.8792168e-08   -797.19104            0   -797.19104    14232.744 
     815 7.2448045e-08   -797.19104            0   -797.19104    14232.744 
     816 7.6127624e-08   -797.19104            0   -797.19104    14232.744 
     817 7.9822918e-08   -797.19104            0   -797.19104    14232.744 
     818 8.3525686e-08   -797.19104            0   -797.19104    14232.744 
     819 8.7227332e-08   -797.19104            0   -797.19104    14232.744 
     820 9.0917461e-08   -797.19104            0   -797.19104    14232.744 
     821 9.4568165e-08   -797.19104            0   -797.19104    14232.743 
     822 9.7947479e-08   -797.19104            0   -797.19104    14232.743 
     823 9.8202508e-08   -797.19104            0   -797.19104    14232.743 
     824 6.7415655e-08   -797.19104            0   -797.19104    14232.743 
     825 3.5612158e-09   -797.19104            0   -797.19104    14232.743 
     826 5.6554276e-09   -797.19104            0   -797.19104    14232.743 
     827  6.56219e-09   -797.19104            0   -797.19104    14232.743 
     828 7.626768e-09   -797.19104            0   -797.19104    14232.743 
     829 8.7657334e-09   -797.19104            0   -797.19104    14232.743 
     830 9.9756228e-09   -797.19104            0   -797.19104    14232.743 
     831 1.125417e-08   -797.19104            0   -797.19104    14232.743 
     832 1.259894e-08   -797.19104            0   -797.19104    14232.743 
     833 1.4007381e-08   -797.19104            0   -797.19104    14232.743 
     834 1.5476777e-08   -797.19104            0   -797.19104    14232.743 
     835 1.7004274e-08   -797.19104            0   -797.19104    14232.743 
     836 1.8586859e-08   -797.19104            0   -797.19104    14232.743 
     837 2.0221385e-08   -797.19104            0   -797.19104    14232.743 
     838 2.1904545e-08   -797.19104            0   -797.19104    14232.743 
     839 2.3632907e-08   -797.19104            0   -797.19104    14232.743 
     840 2.5402872e-08   -797.19104            0   -797.19104    14232.743 
     841 2.7210731e-08   -797.19104            0   -797.19104    14232.743 
     842 2.9052569e-08   -797.19104            0   -797.19104    14232.742 
     843 3.092438e-08   -797.19104            0   -797.19104    14232.742 
     844 3.2821585e-08   -797.19104            0   -797.19104    14232.742 
     845 3.4738592e-08   -797.19104            0   -797.19104    14232.742 
     846 3.6661357e-08   -797.19104            0   -797.19104    14232.742 
     847 3.853026e-08   -797.19104            0   -797.19104    14232.742 
     848 3.9948531e-08   -797.19104            0   -797.19104    14232.742 
     849 3.8222027e-08   -797.19104            0   -797.19104    14232.742 
     850 2.2006496e-08   -797.19104            0   -797.19104    14232.742 
     851 2.9611394e-09   -797.19104            0   -797.19104    14232.742 
     852 3.6282433e-09   -797.19104            0   -797.19104    14232.742 
     853 4.2809499e-09   -797.19104            0   -797.19104    14232.742 
     854 4.9841522e-09   -797.19104            0   -797.19104    14232.742 
     855 5.7356862e-09   -797.19104            0   -797.19104    14232.742 
     856 6.5340442e-09   -797.19104            0   -797.19104    14232.742 
     857 7.3776059e-09   -797.19104            0   -797.19104    14232.742 
     858 8.2646476e-09   -797.19104            0   -797.19104    14232.742 
     859 9.1933352e-09   -797.19104            0   -797.19104    14232.742 
     860 1.0161728e-08   -797.19104            0   -797.19104    14232.742 
     861 1.116778e-08   -797.19104            0   -797.19104    14232.742 
     862 1.2209338e-08   -797.19104            0   -797.19104    14232.742 
     863 1.3284148e-08   -797.19104            0   -797.19104    14232.742 
     864 1.4389853e-08   -797.19104            0   -797.19104    14232.742 
     865 1.5523995e-08   -797.19104            0   -797.19104    14232.742 
     866 1.6684017e-08   -797.19104            0   -797.19104    14232.742 
     867 1.7867266e-08   -797.19104            0   -797.19104    14232.742 
     868 1.9070993e-08   -797.19104            0   -797.19104    14232.742 
     869 2.0292348e-08   -797.19104            0   -797.19104    14232.741 
     870 2.1528393e-08   -797.19104            0   -797.19104    14232.741 
     871 2.2775983e-08   -797.19104            0   -797.19104    14232.741 
     872 2.4031536e-08   -797.19104            0   -797.19104    14232.741 
     873 2.5288013e-08   -797.19104            0   -797.19104    14232.741 
     874 2.6515895e-08   -797.19104            0   -797.19104    14232.741 
     875 2.7495114e-08   -797.19104            0   -797.19104    14232.741 
     876 2.6457447e-08   -797.19104            0   -797.19104    14232.741 
     877 1.4599154e-08   -797.19104            0   -797.19104    14232.741 
     878 1.2572964e-09   -797.19104            0   -797.19104    14232.741 
     879 1.9555229e-09   -797.19104            0   -797.19104    14232.741 
     880 2.3374371e-09   -797.19104            0   -797.19104    14232.741 
     881 2.7570468e-09   -797.19104            0   -797.19104    14232.741 
     882   3.2082e-09   -797.19104            0   -797.19104    14232.741 
     883 3.6899015e-09   -797.19104            0   -797.19104    14232.741 
     884 4.2010916e-09   -797.19104            0   -797.19104    14232.741 
     885 4.7406356e-09   -797.19104            0   -797.19104    14232.741 
     886 5.307323e-09   -797.19104            0   -797.19104    14232.741 
     887 5.8998692e-09   -797.19104            0   -797.19104    14232.741 
     888 6.516916e-09   -797.19104            0   -797.19104    14232.741 
     889 7.1570335e-09   -797.19104            0   -797.19104    14232.741 
     890 7.8187208e-09   -797.19104            0   -797.19104    14232.741 
     891 8.5004075e-09   -797.19104            0   -797.19104    14232.741 
     892 9.2004554e-09   -797.19104            0   -797.19104    14232.741 
     893 9.9171602e-09   -797.19104            0   -797.19104    14232.741 
     894 1.0648752e-08   -797.19104            0   -797.19104    14232.741 
     895  1.13934e-08   -797.19104            0   -797.19104    14232.741 
     896 1.2149208e-08   -797.19104            0   -797.19104    14232.741 
     897 1.2914227e-08   -797.19104            0   -797.19104    14232.741 
     898 1.3686434e-08   -797.19104            0   -797.19104    14232.741 
     899 1.4463719e-08   -797.19104            0   -797.19104    14232.741 
     900 1.5243575e-08   -797.19104            0   -797.19104    14232.741 
     901 1.6021217e-08   -797.19104            0   -797.19104    14232.741 
     902 1.6773189e-08   -797.19104            0   -797.19104    14232.741 
     903 1.7314853e-08   -797.19104            0   -797.19104    14232.741 
     904 1.6078698e-08   -797.19104            0   -797.19104    14232.741 
     905 6.7783525e-09   -797.19104            0   -797.19104     14232.74 
     906 4.2737569e-10   -797.19104            0   -797.19104     14232.74 
     907 7.578131e-10   -797.19104            0   -797.19104     14232.74 
     908 9.9096907e-10   -797.19104            0   -797.19104     14232.74 
     909 1.2126185e-09   -797.19104            0   -797.19104     14232.74 
     910 1.4544726e-09   -797.19104            0   -797.19104     14232.74 
     911 1.7165217e-09   -797.19104            0   -797.19104     14232.74 
     912 1.9981445e-09   -797.19104            0   -797.19104     14232.74 
     913 2.2986687e-09   -797.19104            0   -797.19104     14232.74 
     914 2.6173699e-09   -797.19104            0   -797.19104     14232.74 
     915 2.9534723e-09   -797.19104            0   -797.19104     14232.74 
     916 3.3061495e-09   -797.19104            0   -797.19104     14232.74 
     917 3.6745258e-09   -797.19104            0   -797.19104     14232.74 
     918 4.0576769e-09   -797.19104            0   -797.19104     14232.74 
     919 4.4546311e-09   -797.19104            0   -797.19104     14232.74 
     920 4.864371e-09   -797.19104            0   -797.19104     14232.74 
     921 5.285834e-09   -797.19104            0   -797.19104     14232.74 
     922 5.7179142e-09   -797.19104            0   -797.19104     14232.74 
     923 6.1594645e-09   -797.19104            0   -797.19104     14232.74 
     924 6.6092964e-09   -797.19104            0   -797.19104     14232.74 
     925 7.0661847e-09   -797.19104            0   -797.19104     14232.74 
     926 7.5288657e-09   -797.19104            0   -797.19104     14232.74 
     927 7.9960431e-09   -797.19104            0   -797.19104     14232.74 
     928 8.4663856e-09   -797.19104            0   -797.19104     14232.74 
     929 8.9385351e-09   -797.19104            0   -797.19104     14232.74 
     930 9.4110931e-09   -797.19104            0   -797.19104     14232.74 
     931 9.882614e-09   -797.19104            0   -797.19104     14232.74 
     932 1.035126e-08   -797.19104            0   -797.19104     14232.74 
     933 1.0812161e-08   -797.19104            0   -797.19104     14232.74 
     934 1.1227947e-08   -797.19104            0   -797.19104     14232.74 
     935 1.1211104e-08   -797.19104            0   -797.19104     14232.74 
     936 7.5738542e-09   -797.19104            0   -797.19104     14232.74 
     937 5.3242292e-10   -797.19104            0   -797.19104     14232.74 
     938 7.7021777e-10   -797.19104            0   -797.19104     14232.74 
     939 9.1712388e-10   -797.19104            0   -797.19104     14232.74 
     940 1.0777441e-09   -797.19104            0   -797.19104     14232.74 
     941 1.2499206e-09   -797.19104            0   -797.19104     14232.74 
     942 1.4331513e-09   -797.19104            0   -797.19104     14232.74 
     943 1.6269456e-09   -797.19104            0   -797.19104     14232.74 
     944 1.8307855e-09   -797.19104            0   -797.19104     14232.74 
     945 2.0441209e-09   -797.19104            0   -797.19104     14232.74 
     946 2.2663716e-09   -797.19104            0   -797.19104     14232.74 
     947 2.4969268e-09   -797.19104            0   -797.19104     14232.74 
     948 2.7351471e-09   -797.19104            0   -797.19104     14232.74 
     949 2.9803649e-09   -797.19104            0   -797.19104     14232.74 
     950 3.2318862e-09   -797.19104            0   -797.19104     14232.74 
     951 3.4889898e-09   -797.19104            0   -797.19104     14232.74 
     952 3.7509298e-09   -797.19104            0   -797.19104     14232.74 
     953 4.0169221e-09   -797.19104            0   -797.19104     14232.74 
     954 4.2861209e-09   -797.19104            0   -797.19104     14232.74 
     955 4.5573825e-09   -797.19104            0   -797.19104     14232.74 
     956 4.828143e-09   -797.19104            0   -797.19104     14232.74 
     957 5.0865846e-09   -797.19104            0   -797.19104     14232.74 
     958 5.2591145e-09   -797.19104            0   -797.19104     14232.74 
     959 4.8655863e-09   -797.19104            0   -797.19104     14232.74 
     960 2.3671435e-09   -797.19104            0   -797.19104     14232.74 
     961 3.2222619e-10   -797.19104            0   -797.19104     14232.74 
     962 4.5508192e-10   -797.19104            0   -797.19104     14232.74 
     963 5.4962824e-10   -797.19104            0   -797.19104     14232.74 
     964 6.5293919e-10   -797.19104            0   -797.19104     14232.74 
     965 7.6420939e-10   -797.19104            0   -797.19104     14232.74 
     966 8.8312277e-10   -797.19104            0   -797.19104     14232.74 
     967 1.0093471e-09   -797.19104            0   -797.19104     14232.74 
     968 1.1425265e-09   -797.19104            0   -797.19104     14232.74 
     969 1.2822826e-09   -797.19104            0   -797.19104     14232.74 
     970 1.4282148e-09   -797.19104            0   -797.19104     14232.74 
     971 1.5799014e-09   -797.19104            0   -797.19104     14232.74 
     972 1.7369001e-09   -797.19104            0   -797.19104     14232.74 
     973 1.8987496e-09   -797.19104            0   -797.19104     14232.74 
     974 2.0649691e-09   -797.19104            0   -797.19104     14232.74 
     975 2.2350613e-09   -797.19104            0   -797.19104     14232.74 
     976 2.4085113e-09   -797.19104            0   -797.19104     14232.74 
     977  2.58479e-09   -797.19104            0   -797.19104     14232.74 
     978 2.7633509e-09   -797.19104            0   -797.19104     14232.74 
     979 2.9436356e-09   -797.19104            0   -797.19104     14232.74 
     980 3.1250422e-09   -797.19104            0   -797.19104     14232.74 
     981 3.3068475e-09   -797.19104            0   -797.19104     14232.74 
     982 3.4873612e-09   -797.19104            0   -797.19104     14232.74 
     983 3.6582327e-09   -797.19104            0   -797.19104     14232.74 
     984 3.7557941e-09   -797.19104            0   -797.19104     14232.74 
     985 3.3070158e-09   -797.19104            0   -797.19104     14232.74 
     986 1.1030265e-09   -797.19104            0   -797.19104     14232.74 
     987 1.2327047e-10   -797.19104            0   -797.19104     14232.74 
     988 1.9919157e-10   -797.19104            0   -797.19104     14232.74 
     989 2.5402157e-10   -797.19104            0   -797.19104     14232.74 
     990 3.1155158e-10   -797.19104            0   -797.19104     14232.74 
     991 3.7447471e-10   -797.19104            0   -797.19104     14232.74 
     992 4.4260863e-10   -797.19104            0   -797.19104    14232.739 
     993 5.1575412e-10   -797.19104            0   -797.19104    14232.739 
     994 5.9369564e-10   -797.19104            0   -797.19104    14232.739 
     995 6.7620164e-10   -797.19104            0   -797.19104    14232.739 
     996 7.6302523e-10   -797.19104            0   -797.19104    14232.739 
     997 8.5390458e-10   -797.19104            0   -797.19104    14232.739 
     998 9.4856357e-10   -797.19104            0   -797.19104    14232.739 
     999 1.0467126e-09   -797.19104            0   -797.19104    14232.739 
    1000 1.1480487e-09   -797.19104            0   -797.19104    14232.739 
    1001 1.2522571e-09   -797.19104            0   -797.19104    14232.739 
    1002 1.3590113e-09   -797.19104            0   -797.19104    14232.739 
    1003 1.4679741e-09   -797.19104            0   -797.19104    14232.739 
    1004 1.5787986e-09   -797.19104            0   -797.19104    14232.739 
    1005 1.6911284e-09   -797.19104            0   -797.19104    14232.739 
    1006 1.8046006e-09   -797.19104            0   -797.19104    14232.739 
    1007 1.9188423e-09   -797.19104            0   -797.19104    14232.739 
    1008 2.0334799e-09   -797.19104            0   -797.19104    14232.739 
    1009 2.1481247e-09   -797.19104            0   -797.19104    14232.739 
    1010 2.2624044e-09   -797.19104            0   -797.19104    14232.739 
    1011 2.3758975e-09   -797.19104            0   -797.19104    14232.739 
    1012 2.4882675e-09   -797.19104            0   -797.19104    14232.739 
    1013 2.5987446e-09   -797.19104            0   -797.19104    14232.739 
    1014 2.7053936e-09   -797.19104            0   -797.19104    14232.739 
    1015 2.7826784e-09   -797.19104            0   -797.19104    14232.739 
    1016 2.5624103e-09   -797.19104            0   -797.19104    14232.739 
    1017 8.1490312e-10   -797.19104            0   -797.19104    14232.739 
    1018 1.6588126e-11   -797.19104            0   -797.19104    14232.739 
    1019 3.1097768e-11   -797.19104            0   -797.19104    14232.739 
[...]
    1984 1.8227637e-13   -797.19104            0   -797.19104    14232.739 
    1985 4.4962279e-16   -797.19104            0   -797.19104    14232.739 
    1986 7.4256619e-18   -797.19104            0   -797.19104    14232.739 
    1987 5.160987e-18   -797.19104            0   -797.19104    14232.739 
    1988 5.9305175e-18   -797.19104            0   -797.19104    14232.739 
    1989 6.8942562e-18   -797.19104            0   -797.19104    14232.739 
    1990 7.9407217e-18   -797.19104            0   -797.19104    14232.739 
    1991 9.0578727e-18   -797.19104            0   -797.19104    14232.739 
    1992 1.0238382e-17   -797.19104            0   -797.19104    14232.739 
    1993 1.1486146e-17   -797.19104            0   -797.19104    14232.739 
    1994 1.2792146e-17   -797.19104            0   -797.19104    14232.739 
    1995 1.4163327e-17   -797.19104            0   -797.19104    14232.739 
    1996 1.5589894e-17   -797.19104            0   -797.19104    14232.739 
    1997 1.7083977e-17   -797.19104            0   -797.19104    14232.739 
    1998 1.8668731e-17   -797.19104            0   -797.19104    14232.739 
    1999 2.0473028e-17   -797.19104            0   -797.19104    14232.739 
    2000 2.317263e-17   -797.19104            0   -797.19104    14232.739 
    2001 3.0724093e-17   -797.19104            0   -797.19104    14232.739 
    2002 6.9247501e-17   -797.19104            0   -797.19104    14232.739 
    2003 3.3254973e-16   -797.19104            0   -797.19104    14232.739 
    2004 2.348298e-15   -797.19104            0   -797.19104    14232.739 
    2005 1.4557034e-14   -797.19104            0   -797.19104    14232.739 
    2006 1.6150055e-14   -797.19104            0   -797.19104    14232.739 
    2007 1.3991034e-15   -797.19104            0   -797.19104    14232.739 
    2008 1.9649215e-17   -797.19104            0   -797.19104    14232.739 
    2009 2.6369846e-18   -797.19104            0   -797.19104    14232.739 
    2010 3.1405649e-18   -797.19104            0   -797.19104    14232.739 
    2011 3.7280176e-18   -797.19104            0   -797.19104    14232.739 
    2012 4.3629134e-18   -797.19104            0   -797.19104    14232.739 
    2013 5.0451193e-18   -797.19104            0   -797.19104    14232.739 
    2014 5.7727658e-18   -797.19104            0   -797.19104    14232.739 
    2015 6.5443437e-18   -797.19104            0   -797.19104    14232.739 
    2016 7.3585501e-18   -797.19104            0   -797.19104    14232.739 
    2017 8.2158399e-18   -797.19104            0   -797.19104    14232.739 
    2018 9.1131162e-18   -797.19104            0   -797.19104    14232.739 
    2019 1.0048768e-17   -797.19104            0   -797.19104    14232.739 
    2020 1.1021392e-17   -797.19104            0   -797.19104    14232.739 
    2021 1.2039286e-17   -797.19104            0   -797.19104    14232.739 
    2022 1.3077561e-17   -797.19104            0   -797.19104    14232.739 
    2023 1.4190146e-17   -797.19104            0   -797.19104    14232.739 
    2024 1.5348726e-17   -797.19104            0   -797.19104    14232.739 
    2025 1.7019535e-17   -797.19104            0   -797.19104    14232.739 
    2026 2.1250171e-17   -797.19104            0   -797.19104    14232.739 
    2027 4.7459261e-17   -797.19104            0   -797.19104    14232.739 
    2028 2.6522108e-16   -797.19104            0   -797.19104    14232.739 
    2029 2.3411694e-15   -797.19104            0   -797.19104    14232.739 
    2030 1.7227379e-14   -797.19104            0   -797.19104    14232.739 
    2031 1.2742172e-14   -797.19104            0   -797.19104    14232.739 
    2032 2.8181678e-16   -797.19104            0   -797.19104    14232.739 
    2033 1.9955375e-18   -797.19104            0   -797.19104    14232.739 
    2034 1.9710441e-18   -797.19104            0   -797.19104    14232.739 
    2035 2.3306585e-18   -797.19104            0   -797.19104    14232.739 
    2036 2.7294532e-18   -797.19104            0   -797.19104    14232.739 
    2037 3.1579027e-18   -797.19104            0   -797.19104    14232.739 
    2038 3.6166248e-18   -797.19104            0   -797.19104    14232.739 
    2039 4.1029781e-18   -797.19104            0   -797.19104    14232.739 
    2040 4.6183019e-18   -797.19104            0   -797.19104    14232.739 
    2041 5.1585184e-18   -797.19104            0   -797.19104    14232.739 
    2042 5.7276926e-18   -797.19104            0   -797.19104    14232.739 
    2043 6.3180963e-18   -797.19104            0   -797.19104    14232.739 
    2044 6.9411103e-18   -797.19104            0   -797.19104    14232.739 
    2045 7.5791757e-18   -797.19104            0   -797.19104    14232.739 
    2046 8.2552052e-18   -797.19104            0   -797.19104    14232.739 
    2047 8.9478862e-18   -797.19104            0   -797.19104    14232.739 
    2048 9.7569043e-18   -797.19104            0   -797.19104    14232.739 
    2049 1.0954086e-17   -797.19104            0   -797.19104    14232.739 
    2050 1.5052823e-17   -797.19104            0   -797.19104    14232.739 
    2051 4.1047468e-17   -797.19104            0   -797.19104    14232.739 
    2052 2.5134183e-16   -797.19104            0   -797.19104    14232.739 
    2053 1.5299105e-15   -797.19104            0   -797.19104    14232.739 
    2054 1.1734345e-15   -797.19104            0   -797.19104    14232.739 
    2055 4.2017109e-17   -797.19104            0   -797.19104    14232.739 
    2056 1.0858104e-18   -797.19104            0   -797.19104    14232.739 
    2057 1.2743915e-18   -797.19104            0   -797.19104    14232.739 
    2058 1.5148205e-18   -797.19104            0   -797.19104    14232.739 
    2059 1.7750013e-18   -797.19104            0   -797.19104    14232.739 
    2060 2.0557923e-18   -797.19104            0   -797.19104    14232.739 
    2061 2.3556968e-18   -797.19104            0   -797.19104    14232.739 
    2062 2.6733194e-18   -797.19104            0   -797.19104    14232.739 
    2063 3.0105047e-18   -797.19104            0   -797.19104    14232.739 
    2064 3.3651698e-18   -797.19104            0   -797.19104    14232.739 
    2065 3.7370303e-18   -797.19104            0   -797.19104    14232.739 
    2066 4.1266127e-18   -797.19104            0   -797.19104    14232.739 
    2067 4.5340301e-18   -797.19104            0   -797.19104    14232.739 
    2068 4.9558426e-18   -797.19104            0   -797.19104    14232.739 
    2069 5.3963204e-18   -797.19104            0   -797.19104    14232.739 
    2070 5.8556062e-18   -797.19104            0   -797.19104    14232.739 
    2071 6.3542021e-18   -797.19104            0   -797.19104    14232.739 
    2072 6.9803563e-18   -797.19104            0   -797.19104    14232.739 
    2073 8.481259e-18   -797.19104            0   -797.19104    14232.739 
    2074 1.6100072e-17   -797.19104            0   -797.19104    14232.739 
    2075 7.522482e-17   -797.19104            0   -797.19104    14232.739 
    2076 4.6200681e-16   -797.19104            0   -797.19104    14232.739 
    2077 5.1594065e-16   -797.19104            0   -797.19104    14232.739 
    2078 3.8081168e-17   -797.19104            0   -797.19104    14232.739 
    2079 1.8726105e-18   -797.19104            0   -797.19104    14232.739 
    2080 6.4656528e-19   -797.19104            0   -797.19104    14232.739 
    2081 7.8450409e-19   -797.19104            0   -797.19104    14232.739 
    2082 9.3716473e-19   -797.19104            0   -797.19104    14232.739 
    2083 1.1024666e-18   -797.19104            0   -797.19104    14232.739 
    2084 1.281006e-18   -797.19104            0   -797.19104    14232.739 
    2085 1.4714207e-18   -797.19104            0   -797.19104    14232.739 
    2086 1.6751528e-18   -797.19104            0   -797.19104    14232.739 
    2087 1.8900112e-18   -797.19104            0   -797.19104    14232.739 
    2088 2.1168284e-18   -797.19104            0   -797.19104    14232.739 
    2089 2.3564993e-18   -797.19104            0   -797.19104    14232.739 
    2090 2.6056251e-18   -797.19104            0   -797.19104    14232.739 
    2091 2.8699291e-18   -797.19104            0   -797.19104    14232.739 
    2092 3.1401688e-18   -797.19104            0   -797.19104    14232.739 
    2093 3.4271846e-18   -797.19104            0   -797.19104    14232.739 
    2094 3.7204254e-18   -797.19104            0   -797.19104    14232.739 
    2095 4.0501279e-18   -797.19104            0   -797.19104    14232.739 
    2096 4.4345694e-18   -797.19104            0   -797.19104    14232.739 
    2097 5.3172186e-18   -797.19104            0   -797.19104    14232.739 
    2098 9.1681001e-18   -797.19104            0   -797.19104    14232.739 
    2099 3.8393198e-17   -797.19104            0   -797.19104    14232.739 
    2100 2.9794287e-16   -797.19104            0   -797.19104    14232.739 
    2101 2.9805589e-15   -797.19104            0   -797.19104    14232.739 
    2102 3.4273569e-14   -797.19104            0   -797.19104    14232.739 
    2103 4.406205e-13   -797.19104            0   -797.19104    14232.739 
    2104 5.1435623e-12   -797.19104            0   -797.19104    14232.739 
    2105 6.9531688e-12   -797.19104            0   -797.19104    14232.739 
    2106 2.2556605e-13   -797.19104            0   -797.19104    14232.739 
    2107 8.1997543e-14   -797.19104            0   -797.19104    14232.739 
    2108 1.1397169e-14   -797.19104            0   -797.19104    14232.739 
    2109 5.2261159e-16   -797.19104            0   -797.19104    14232.739 
    2110 3.5504485e-18   -797.19104            0   -797.19104    14232.739 
    2111 4.284605e-19   -797.19104            0   -797.19104    14232.739 
    2112 5.0133569e-19   -797.19104            0   -797.19104    14232.739 
    2113 5.9162636e-19   -797.19104            0   -797.19104    14232.739 
    2114 6.8937719e-19   -797.19104            0   -797.19104    14232.739 
    2115 7.9418939e-19   -797.19104            0   -797.19104    14232.739 
    2116 9.0650672e-19   -797.19104            0   -797.19104    14232.739 
    2117 1.0248747e-18   -797.19104            0   -797.19104    14232.739 
    2118 1.1510339e-18   -797.19104            0   -797.19104    14232.739 
    2119 1.2834736e-18   -797.19104            0   -797.19104    14232.739 
    2120 1.4221342e-18   -797.19104            0   -797.19104    14232.739 
    2121 1.5686254e-18   -797.19104            0   -797.19104    14232.739 
    2122 1.7197264e-18   -797.19104            0   -797.19104    14232.739 
    2123 1.879938e-18   -797.19104            0   -797.19104    14232.739 
    2124 2.0445968e-18   -797.19104            0   -797.19104    14232.739 
    2125 2.2263288e-18   -797.19104            0   -797.19104    14232.739 
    2126 2.4279524e-18   -797.19104            0   -797.19104    14232.739 
    2127 2.8156684e-18   -797.19104            0   -797.19104    14232.739 
    2128 4.1931309e-18   -797.19104            0   -797.19104    14232.739 
    2129 1.3973224e-17   -797.19104            0   -797.19104    14232.739 
    2130 9.7137867e-17   -797.19104            0   -797.19104    14232.739 
    2131 9.3658222e-16   -797.19104            0   -797.19104    14232.739 
    2132 1.0516166e-14   -797.19104            0   -797.19104    14232.739 
    2133 1.3302561e-13   -797.19104            0   -797.19104    14232.739 
    2134 1.5899604e-12   -797.19104            0   -797.19104    14232.739 
    2135 3.0059026e-12   -797.19104            0   -797.19104    14232.739 
    2136 6.0436702e-14   -797.19104            0   -797.19104    14232.739 
    2137 5.8126529e-14   -797.19104            0   -797.19104    14232.739 
    2138 3.1725915e-14   -797.19104            0   -797.19104    14232.739 
    2139 8.3280662e-15   -797.19104            0   -797.19104    14232.739 
    2140 9.5664614e-16   -797.19104            0   -797.19104    14232.739 
    2141 3.6468016e-17   -797.19104            0   -797.19104    14232.739 
    2142 3.5487132e-19   -797.19104            0   -797.19104    14232.739 
    2143 2.4116487e-19   -797.19104            0   -797.19104    14232.739 
    2144 2.8764729e-19   -797.19104            0   -797.19104    14232.739 
    2145 3.385949e-19   -797.19104            0   -797.19104    14232.739 
    2146 3.9429835e-19   -797.19104            0   -797.19104    14232.739 
    2147 4.5334792e-19   -797.19104            0   -797.19104    14232.739 
    2148 5.1688509e-19   -797.19104            0   -797.19104    14232.739 
    2149 5.8404743e-19   -797.19104            0   -797.19104    14232.739 
    2150 6.5549632e-19   -797.19104            0   -797.19104    14232.739 
    2151 7.3019826e-19   -797.19104            0   -797.19104    14232.739 
    2152 8.0976917e-19   -797.19104            0   -797.19104    14232.739 
    2153 8.9135453e-19   -797.19104            0   -797.19104    14232.739 
    2154 9.7903264e-19   -797.19104            0   -797.19104    14232.739 
    2155 1.0673927e-18   -797.19104            0   -797.19104    14232.739 
    2156 1.1654945e-18   -797.19104            0   -797.19104    14232.739 
    2157 1.2630987e-18   -797.19104            0   -797.19104    14232.739 
    2158 1.3948422e-18   -797.19104            0   -797.19104    14232.739 
    2159 1.6232522e-18   -797.19104            0   -797.19104    14232.739 
    2160 2.6542042e-18   -797.19104            0   -797.19104    14232.739 
    2161 9.5928823e-18   -797.19104            0   -797.19104    14232.739 
    2162 7.028844e-17   -797.19104            0   -797.19104    14232.739 
    2163 6.7789839e-16   -797.19104            0   -797.19104    14232.739 
    2164 7.6360727e-15   -797.19104            0   -797.19104    14232.739 
    2165 9.7931222e-14   -797.19104            0   -797.19104    14232.739 
    2166 1.3832496e-12   -797.19104            0   -797.19104    14232.739 
    2167 1.3823996e-11   -797.19104            0   -797.19104    14232.739 
    2168 2.267552e-12   -797.19104            0   -797.19104    14232.739 
    2169 1.2660895e-12   -797.19104            0   -797.19104    14232.739 
    2170 7.8819642e-14   -797.19104            0   -797.19104    14232.739 
    2171 1.744356e-16   -797.19104            0   -797.19104    14232.739 
    2172 9.589233e-19   -797.19104            0   -797.19104    14232.739 
    2173 2.0288916e-19   -797.19104            0   -797.19104    14232.739 
    2174 1.9918239e-19   -797.19104            0   -797.19104    14232.739 
    2175 2.2569905e-19   -797.19104            0   -797.19104    14232.739 
    2176 2.5868954e-19   -797.19104            0   -797.19104    14232.739 
    2177 2.9372337e-19   -797.19104            0   -797.19104    14232.739 
    2178  3.31706e-19   -797.19104            0   -797.19104    14232.739 
    2179 3.7139931e-19   -797.19104            0   -797.19104    14232.739 
    2180 4.138518e-19   -797.19104            0   -797.19104    14232.739 
    2181 4.5830467e-19   -797.19104            0   -797.19104    14232.739 
    2182 5.0510606e-19   -797.19104            0   -797.19104    14232.739 
    2183 5.5675405e-19   -797.19104            0   -797.19104    14232.739 
    2184 6.1483355e-19   -797.19104            0   -797.19104    14232.739 
    2185 7.0159625e-19   -797.19104            0   -797.19104    14232.739 
    2186 9.1135507e-19   -797.19104            0   -797.19104    14232.739 
    2187 1.8218859e-18   -797.19104            0   -797.19104    14232.739 
    2188 7.2484276e-18   -797.19104            0   -797.19104    14232.739 
    2189 4.6070674e-17   -797.19104            0   -797.19104    14232.739 
    2190 3.6618545e-16   -797.19104            0   -797.19104    14232.739 
    2191 3.3778012e-15   -797.19104            0   -797.19104    14232.739 
    2192 3.556012e-14   -797.19104            0   -797.19104    14232.739 
    2193 4.1895513e-13   -797.19104            0   -797.19104    14232.739 
    2194  4.54474e-12   -797.19104            0   -797.19104    14232.739 
    2195 7.1229259e-12   -797.19104            0   -797.19104    14232.739 
    2196 2.4646388e-13   -797.19104            0   -797.19104    14232.739 
    2197 1.2289429e-13   -797.19104            0   -797.19104    14232.739 
    2198 2.5905025e-14   -797.19104            0   -797.19104    14232.739 
    2199 2.1043531e-15   -797.19104            0   -797.19104    14232.739 
    2200 4.3745504e-17   -797.19104            0   -797.19104    14232.739 
    2201 7.724091e-20   -797.19104            0   -797.19104    14232.739 
    2202 8.2703439e-20   -797.19104            0   -797.19104    14232.739 
    2203 9.8144445e-20   -797.19104            0   -797.19104    14232.739 
    2204 1.1497402e-19   -797.19104            0   -797.19104    14232.739 
    2205 1.3318362e-19   -797.19104            0   -797.19104    14232.739 
    2206 1.5248447e-19   -797.19104            0   -797.19104    14232.739 
    2207 1.7328899e-19   -797.19104            0   -797.19104    14232.739 
    2208 1.9548843e-19   -797.19104            0   -797.19104    14232.739 
    2209 2.1849467e-19   -797.19104            0   -797.19104    14232.739 
    2210 2.4375215e-19   -797.19104            0   -797.19104    14232.739 
    2211 2.6879372e-19   -797.19104            0   -797.19104    14232.739 
    2212 2.9725248e-19   -797.19104            0   -797.19104    14232.739 
    2213 3.2465979e-19   -797.19104            0   -797.19104    14232.739 
    2214 3.5635034e-19   -797.19104            0   -797.19104    14232.739 
    2215 3.8782607e-19   -797.19104            0   -797.19104    14232.739 
    2216 4.3601631e-19   -797.19104            0   -797.19104    14232.739 
    2217 5.2977994e-19   -797.19104            0   -797.19104    14232.739 
    2218 9.9472752e-19   -797.19104            0   -797.19104    14232.739 
    2219 4.0524346e-18   -797.19104            0   -797.19104    14232.739 
    2220 2.9647529e-17   -797.19104            0   -797.19104    14232.739 
    2221 2.7422642e-16   -797.19104            0   -797.19104    14232.739 
    2222 2.954285e-15   -797.19104            0   -797.19104    14232.739 
    2223 3.6341212e-14   -797.19104            0   -797.19104    14232.739 
    2224 5.0636716e-13   -797.19104            0   -797.19104    14232.739 
    2225 7.456919e-12   -797.19104            0   -797.19104    14232.739 
    2226 4.4573479e-11   -797.19104            0   -797.19104    14232.739 
    2227 3.0071519e-14   -797.19104            0   -797.19104    14232.739 
Loop time of 427.117 on 24 procs for 727 steps with 127 atoms

98.5% CPU use with 24 MPI tasks x no OpenMP threads

Minimization stats:
  Stopping criterion = energy tolerance
  Energy initial, next-to-last, final = 
        -797.191035568     -797.191035567     -797.191035567
  Force two-norm initial, final = 1.29141e-07 1.50966e-06
  Force max component initial, final = 3.50327e-08 4.2083e-07
  Final line search alpha, max atom move = 0 0
  Iterations, force evaluations = 727 727

MPI task timing breakdown:
Section |  min time  |  avg time  |  max time  |%varavg| %total
---------------------------------------------------------------
Pair    | 171.61     | 309.58     | 421.1      | 408.5 | 72.48
Neigh   | 0          | 0          | 0          |   0.0 |  0.00
Comm    | 0.038764   | 111.56     | 249.53     | 680.5 | 26.12
Output  | 0.12324    | 0.12383    | 0.1246     |   0.1 |  0.03
Modify  | 4.8784     | 4.8792     | 4.8797     |   0.0 |  1.14
Other   |            | 0.9712     |            |       |  0.23

Nlocal:    5.29167 ave 7 max 3 min
Histogram: 4 0 0 0 0 8 0 9 0 3
Nghost:    758.375 ave 798 max 714 min
Histogram: 8 0 0 0 0 6 2 0 0 8
Neighs:    0 ave 0 max 0 min
Histogram: 24 0 0 0 0 0 0 0 0 0
FullNghs:  1069.25 ave 1410 max 615 min
Histogram: 4 0 0 0 4 4 0 9 0 3

Total # of neighbors = 25662
Ave neighs/atom = 202.063
Neighbor list builds = 0
Dangerous builds = 0
Total wall time: 0:22:05
