LAMMPS (12 Dec 2018)
Processor partition = 4
Reading data file ...
  orthogonal box = (0 0 0) to (10.0025 12.3537 10.615)
  2 by 4 by 3 MPI processor grid
  reading atoms ...
  127 atoms
Reading potential file lammps-force.nnp with DATE: 20201105
Reading potential file lammps_rot.nnp with DATE: 20211226
Neighbor list info ...
  update every 1 steps, delay 0 steps, check yes
  max neighbors/atom: 2000, page size: 100000
  master list distance cutoff = 8
  ghost atom cutoff = 8
  binsize = 4, bins = 3 4 3
  2 neighbor lists, perpetual/occasional/extra = 2 0 0
  (1) pair nnp3v, perpetual
      attributes: full, newton on
      pair build: full/bin/atomonly
      stencil: full/bin/3d
      bin: standard
  (2) pair nnp3v_vf, perpetual, copy from (1)
      attributes: full, newton on
      pair build: copy
      stencil: none
      bin: none
Setting up quickmin style minimization ...
  Unit style    : metal
  Current step  : 0
Per MPI rank memory allocation (min/avg/max) = 3.111 | 3.226 | 3.362 Mbytes
Step Temp E_pair E_mol TotEng Press 
       0            0   -796.79482            0   -796.79482    13324.103 
      24   0.66844098   -796.99042            0   -796.97954    13893.519 
Loop time of 14.6432 on 24 procs for 24 steps with 127 atoms

98.2% CPU use with 24 MPI tasks x no OpenMP threads

Minimization stats:
  Stopping criterion = energy tolerance
  Energy initial, next-to-last, final = 
        -796.794816724     -796.990398619     -796.990424995
  Force two-norm initial, final = 1.98977 0.177561
  Force max component initial, final = 0.330078 0.036579
  Final line search alpha, max atom move = 0 0
  Iterations, force evaluations = 24 24

MPI task timing breakdown:
Section |  min time  |  avg time  |  max time  |%varavg| %total
---------------------------------------------------------------
Pair    | 6.0523     | 10.757     | 14.64      |  77.9 | 73.46
Neigh   | 0          | 0          | 0          |   0.0 |  0.00
Comm    | 0.0020132  | 3.8846     | 8.5894     | 129.6 | 26.53
Output  | 0          | 0          | 0          |   0.0 |  0.00
Modify  | 0          | 0          | 0          |   0.0 |  0.00
Other   |            | 0.001371   |            |       |  0.01

Nlocal:    5.29167 ave 7 max 3 min
Histogram: 4 0 0 0 0 9 0 7 0 4
Nghost:    759.125 ave 797 max 714 min
Histogram: 7 1 0 0 0 2 6 0 0 8
Neighs:    0 ave 0 max 0 min
Histogram: 24 0 0 0 0 0 0 0 0 0
FullNghs:  1068 ave 1413 max 614 min
Histogram: 4 0 0 0 5 4 0 7 0 4

Total # of neighbors = 25632
Ave neighs/atom = 201.827
Neighbor list builds = 0
Dangerous builds = 0
Setting up quickmin style minimization ...
  Unit style    : metal
  Current step  : 0
Per MPI rank memory allocation (min/avg/max) = 5.112 | 5.237 | 5.362 Mbytes
Step Temp E_pair E_mol TotEng Press 
       0            0    -793.4416            0    -793.4416    20905.139 
       1    13.548312    -793.4416            0   -793.22094    21084.825 
       2     54.95968   -793.84303            0   -792.94791    21241.519 
       3    114.11094   -794.48459            0   -792.62609    21273.258 
       4    162.94127   -795.10317            0   -792.44938    21058.628 
       5    184.79632   -795.55671            0   -792.54697    20412.163 
       6    185.28815   -795.85687            0   -792.83912     19226.66 
       7    156.45476   -796.05339            0   -793.50525    17606.447 
       8    146.35664   -796.18877            0    -793.8051    16552.978 
       9    142.58666   -796.28777            0   -793.96549    16106.348 
      10    136.96483   -796.36222            0    -794.1315    15739.808 
      11    100.69087   -796.40399            0   -794.76406    15323.795 
      12   0.96887505   -796.40838            0    -796.3926    13970.231 
      13    1.2736842   -796.41317            0   -796.39243    13941.116 
      14    1.5750483   -796.41833            0   -796.39268    13913.967 
      15    1.9205893    -796.4241            0   -796.39282    13894.716 
      16    2.3393839   -796.43048            0   -796.39238    13885.949 
      17    2.8345035   -796.43736            0    -796.3912    13883.186 
      18    3.3676304   -796.44469            0   -796.38984    13882.505 
      19    3.9309203   -796.45242            0    -796.3884    13882.975 
      20    4.5223786   -796.46048            0   -796.38682    13884.461 
      21     5.137986   -796.46881            0   -796.38513    13886.828 
      22    5.7741071   -796.47736            0   -796.38332    13889.968 
      23    6.4273371   -796.48607            0   -796.38139    13893.736 
      24     7.094326   -796.49489            0   -796.37935    13898.034 
      25    7.7717052   -796.50373            0   -796.37716    13902.673 
      26    8.4559026   -796.51258            0   -796.37486    13907.505 
      27    9.1432577   -796.52136            0   -796.37244    13912.263 
      28     9.829722   -796.53005            0   -796.36995    13916.706 
      29    10.511071   -796.53861            0   -796.36742    13920.613 
      30    11.182684   -796.54711            0   -796.36498    13923.738 
      31    11.839795   -796.55543            0    -796.3626    13925.828 
      32    12.477538   -796.56349            0   -796.36027    13926.531 
      33    13.090777   -796.57124            0   -796.35804    13925.677 
      34    13.675007   -796.57865            0   -796.35593    13922.921 
      35    14.220986   -796.58572            0   -796.35411     13918.87 
      36    14.724449   -796.59251            0   -796.35269      13910.5 
      37    14.892813   -796.59871            0   -796.35615    13907.272 
      38    10.425428   -796.60257            0   -796.43278    13805.776 
      39 0.0041227079   -796.60257            0   -796.60251    13667.563 
      40  0.015486226   -796.60268            0   -796.60243    13668.628 
      41  0.034688701    -796.6029            0   -796.60233    13670.717 
      42  0.060649374    -796.6032            0   -796.60221    13673.764 
      43  0.091794976   -796.60356            0   -796.60207    13677.575 
      44   0.12616018   -796.60398            0   -796.60193    13681.671 
      45   0.16074353   -796.60447            0   -796.60185    13685.072 
      46   0.19354552   -796.60503            0   -796.60188    13686.642 
      47   0.23226233   -796.60567            0   -796.60189    13686.462 
      48   0.28004091   -796.60638            0   -796.60182     13685.35 
      49   0.33334593   -796.60716            0   -796.60173    13683.802 
      50   0.39080163     -796.608            0   -796.60163    13682.009 
      51   0.45209651   -796.60889            0   -796.60153    13680.014 
      52   0.51702335   -796.60984            0   -796.60142    13677.824 
      53   0.58535364   -796.61086            0   -796.60133    13675.422 
      54   0.65684703   -796.61193            0   -796.60123    13672.816 
      55    0.7312436   -796.61304            0   -796.60113    13670.008 
      56   0.80827302   -796.61419            0   -796.60102    13666.992 
      57   0.88765449   -796.61538            0   -796.60092    13663.759 
      58   0.96909664    -796.6166            0   -796.60082    13660.315 
      59    1.0523028   -796.61786            0   -796.60072    13656.655 
      60    1.1369652   -796.61914            0   -796.60062    13652.777 
      61    1.2227706   -796.62045            0   -796.60053     13648.68 
      62    1.3093985   -796.62177            0   -796.60045    13644.361 
      63     1.396529   -796.62311            0   -796.60037    13639.823 
      64    1.4838434   -796.62447            0    -796.6003    13635.065 
      65     1.571014   -796.62583            0   -796.60024    13630.089 
      66    1.6577232    -796.6272            0    -796.6002    13624.892 
      67     1.743649   -796.62856            0   -796.60017     13619.48 
      68    1.8284887   -796.62993            0   -796.60015    13613.856 
      69    1.9119185   -796.63131            0   -796.60018    13608.008 
      70    1.9936456   -796.63268            0   -796.60021    13601.952 
      71    2.0733001   -796.63403            0   -796.60026    13595.711 
      72     2.150752   -796.63537            0   -796.60034     13589.26 
      73    2.2243494   -796.63668            0   -796.60045    13582.742 
      74    2.2853836   -796.63797            0   -796.60075    13575.532 
      75     2.198371    -796.6392            0    -796.6034     13568.04 
      76   0.99809829   -796.63998            0   -796.62372    13544.192 
      77 0.0074787468   -796.64003            0   -796.63991    13531.167 
      78  0.013113618   -796.64011            0    -796.6399    13531.276 
      79  0.022452752   -796.64022            0   -796.63985    13531.234 
      80  0.035234792   -796.64035            0   -796.63978    13530.913 
      81  0.048133316   -796.64052            0   -796.63973    13530.253 
      82  0.060365798    -796.6407            0   -796.63971    13529.329 
      83  0.073180402    -796.6409            0   -796.63971    13528.235 
      84   0.08703134   -796.64112            0    -796.6397    13527.016 
      85   0.10194704   -796.64136            0    -796.6397    13525.685 
      86   0.11789176   -796.64161            0   -796.63969    13524.246 
      87   0.13482234   -796.64188            0   -796.63969      13522.7 
      88   0.15269205   -796.64217            0   -796.63969    13521.048 
      89   0.17145136   -796.64248            0   -796.63968    13519.292 
      90   0.19104829    -796.6428            0   -796.63969    13517.433 
      91   0.21142865   -796.64313            0   -796.63969    13515.472 
      92   0.23253622   -796.64348            0   -796.63969    13513.411 
      93   0.25431302   -796.64384            0    -796.6397    13511.253 
      94   0.27669953   -796.64422            0   -796.63971    13508.998 
      95   0.29963565    -796.6446            0   -796.63972    13506.651 
      96   0.32305943     -796.645            0   -796.63974    13504.212 
      97   0.34690768   -796.64541            0   -796.63976    13501.685 
      98   0.37111745   -796.64583            0   -796.63979    13499.071 
      99   0.39562583   -796.64626            0   -796.63981    13496.375 
     100   0.42036766    -796.6467            0   -796.63985    13493.597 
     101   0.44528044   -796.64714            0   -796.63989     13490.74 
     102   0.47029989   -796.64759            0   -796.63993     13487.81 
     103   0.49536384   -796.64805            0   -796.63998    13484.808 
     104   0.52040955   -796.64852            0   -796.64004    13481.738 
     105   0.54537768   -796.64898            0    -796.6401    13478.604 
     106   0.57020589   -796.64946            0   -796.64017    13475.409 
     107   0.59483845   -796.64993            0   -796.64025    13472.148 
     108   0.61919008   -796.65041            0   -796.64033    13468.849 
     109   0.64309245   -796.65089            0   -796.64042    13465.447 
     110   0.66495546   -796.65138            0   -796.64055    13462.157 
     111   0.66948613   -796.65186            0   -796.64095    13458.056 
     112   0.51107174   -796.65226            0   -796.64394    13454.194 
     113   0.05675554   -796.65239            0   -796.65147    13445.778 
     114  0.031366385   -796.65249            0   -796.65198    13444.999 
     115  0.036991512   -796.65259            0   -796.65199    13444.274 
     116  0.042849605    -796.6527            0   -796.65201    13443.474 
     117   0.04908751   -796.65282            0   -796.65202    13442.616 
     118  0.055691708   -796.65295            0   -796.65204    13441.701 
     119  0.062647326   -796.65308            0   -796.65206    13440.729 
     120  0.069938996   -796.65322            0   -796.65208    13439.701 
     121  0.077550592   -796.65336            0    -796.6521    13438.617 
     122  0.085465255   -796.65352            0   -796.65213     13437.48 
     123  0.093665546   -796.65368            0   -796.65215    13436.289 
     124   0.10213347   -796.65384            0   -796.65218    13435.047 
     125   0.11085054   -796.65401            0   -796.65221    13433.753 
     126   0.11979783   -796.65419            0   -796.65224     13432.41 
     127   0.12895606   -796.65437            0   -796.65227    13431.018 
     128   0.13830559   -796.65456            0   -796.65231    13429.579 
     129   0.14782667   -796.65475            0   -796.65235    13428.094 
     130    0.1574992   -796.65495            0   -796.65239    13426.564 
     131   0.16730284   -796.65515            0   -796.65243    13424.991 
     132   0.17721728   -796.65536            0   -796.65247    13423.375 
     133   0.18722217   -796.65557            0   -796.65252    13421.718 
     134   0.19729751   -796.65578            0   -796.65257    13420.016 
     135   0.20742066   -796.65599            0   -796.65262    13418.277 
     136   0.21757382   -796.65621            0   -796.65267      13416.5 
     137    0.2277358   -796.65643            0   -796.65272    13414.691 
     138   0.23788994   -796.65665            0   -796.65278    13412.845 
     139   0.24800971   -796.65688            0   -796.65284    13410.977 
     140   0.25809029   -796.65711            0    -796.6529    13409.052 
     141   0.26803035   -796.65734            0   -796.65297    13407.182 
     142   0.27755336   -796.65757            0   -796.65305    13405.011 
     143   0.28156597    -796.6578            0   -796.65321    13403.699 
     144   0.23079601     -796.658            0   -796.65424    13398.882 
     145  0.033093202   -796.65806            0   -796.65752    13398.019 
     146 0.0097995759    -796.6581            0   -796.65794    13396.854 
     147  0.011746263   -796.65815            0   -796.65795    13396.378 
     148  0.013840755   -796.65819            0   -796.65797    13395.963 
     149  0.016106594   -796.65824            0   -796.65798    13395.524 
     150  0.018529166    -796.6583            0     -796.658    13395.051 
     151   0.02110336   -796.65836            0   -796.65801    13394.545 
     152  0.023824344   -796.65842            0   -796.65803    13394.005 
     153  0.026687039   -796.65849            0   -796.65805    13393.433 
     154  0.029686172   -796.65856            0   -796.65807     13392.83 
     155  0.032816215   -796.65863            0   -796.65809    13392.194 
     156  0.036071274    -796.6587            0   -796.65812    13391.528 
     157  0.039445323   -796.65878            0   -796.65814    13390.831 
     158  0.042932132   -796.65887            0   -796.65817    13390.103 
     159  0.046525287   -796.65895            0   -796.65819    13389.347 
     160  0.050218202   -796.65904            0   -796.65822    13388.561 
     161  0.054004208   -796.65913            0   -796.65825    13387.744 
     162  0.057876496   -796.65923            0   -796.65828      13386.9 
     163  0.061827982   -796.65932            0   -796.65832    13386.028 
     164  0.065851554   -796.65942            0   -796.65835    13385.129 
     165  0.069940062   -796.65952            0   -796.65838    13384.204 
     166  0.074086241   -796.65963            0   -796.65842    13383.254 
     167   0.07828277   -796.65973            0   -796.65845    13382.274 
     168  0.082521119   -796.65983            0   -796.65848    13381.268 
     169  0.086795316   -796.65993            0   -796.65852    13380.238 
     170  0.091097091   -796.66003            0   -796.65855    13379.186 
     171  0.095420656   -796.66014            0   -796.65859    13378.111 
     172  0.099755721   -796.66025            0   -796.65862    13377.015 
     173   0.10410056   -796.66036            0   -796.65866    13375.895 
     174   0.10843537   -796.66047            0    -796.6587    13374.763 
     175    0.1127677   -796.66058            0   -796.65874    13373.584 
     176    0.1169299   -796.66069            0   -796.65879    13372.478 
     177   0.11980386    -796.6608            0   -796.65885    13371.038 
     178   0.10687757   -796.66091            0   -796.65916    13370.507 
     179  0.026092585   -796.66093            0   -796.66051    13368.246 
     180 0.0039286845   -796.66095            0   -796.66089    13367.924 
     181 0.0043700611   -796.66097            0    -796.6609    13367.771 
     182 0.0051585559     -796.661            0   -796.66091    13367.554 
     183 0.0060692426   -796.66102            0   -796.66092    13367.303 
     184 0.0070515868   -796.66105            0   -796.66093     13367.03 
     185 0.0081015218   -796.66107            0   -796.66094    13366.737 
     186 0.0092173315    -796.6611            0   -796.66095    13366.422 
     187  0.010397199   -796.66114            0   -796.66097    13366.087 
     188  0.011639184   -796.66117            0   -796.66098    13365.732 
     189  0.012941243    -796.6612            0   -796.66099    13365.357 
     190  0.014301232   -796.66124            0   -796.66101    13364.962 
     191  0.015716911   -796.66128            0   -796.66102    13364.548 
     192  0.017185947   -796.66132            0   -796.66104    13364.114 
     193  0.018705928   -796.66136            0   -796.66106    13363.661 
     194  0.020274361   -796.66141            0   -796.66108     13363.19 
     195  0.021888675   -796.66145            0    -796.6611    13362.699 
     196  0.023546234    -796.6615            0   -796.66112    13362.191 
     197  0.025244323   -796.66155            0   -796.66114    13361.666 
     198  0.026980183    -796.6616            0   -796.66116    13361.122 
     199  0.028751003   -796.66165            0   -796.66119    13360.562 
     200  0.030553922   -796.66171            0   -796.66121    13359.984 
     201  0.032386029   -796.66176            0   -796.66124    13359.389 
     202  0.034244387   -796.66182            0   -796.66126    13358.779 
     203  0.036126009   -796.66188            0   -796.66129    13358.152 
     204  0.038027915   -796.66194            0   -796.66132    13357.509 
     205  0.039947041     -796.662            0   -796.66135    13356.851 
     206  0.041880442   -796.66206            0   -796.66138    13356.178 
     207  0.043824882   -796.66212            0   -796.66141     13355.49 
     208  0.045777688   -796.66219            0   -796.66144    13354.789 
     209  0.047734774   -796.66225            0   -796.66148    13354.071 
     210  0.049694121   -796.66232            0   -796.66151    13353.345 
     211  0.051635151   -796.66239            0   -796.66154    13352.593 
     212  0.053434455   -796.66246            0   -796.66158    13351.864 
     213  0.053429161   -796.66251            0   -796.66164    13351.025 
     214  0.036537091   -796.66257            0   -796.66198    13350.407 
     215 0.0017129088   -796.66258            0   -796.66255    13349.823 
     216   0.00189561   -796.66259            0   -796.66255    13349.679 
     217 0.0019681937    -796.6626            0   -796.66256    13349.527 
     218 0.0022681364   -796.66261            0   -796.66257    13349.375 
     219 0.0026687127   -796.66262            0   -796.66258    13349.215 
     220 0.0031046431   -796.66264            0   -796.66259    13349.043 
     221 0.0035711332   -796.66265            0   -796.66259    13348.857 
     222 0.0040674477   -796.66267            0    -796.6626    13348.658 
     223 0.0045928476   -796.66269            0   -796.66261    13348.446 
     224 0.0051465382   -796.66271            0   -796.66263    13348.222 
     225 0.0057276802   -796.66273            0   -796.66264    13347.984 
     226 0.0063353904   -796.66275            0   -796.66265    13347.733 
     227 0.0069687458   -796.66278            0   -796.66266     13347.47 
     228 0.0076267865    -796.6628            0   -796.66268    13347.195 
     229  0.008308516   -796.66282            0   -796.66269    13346.907 
     230 0.0090128937   -796.66285            0    -796.6627    13346.607 
     231 0.0097388488   -796.66288            0   -796.66272    13346.295 
     232  0.010485279   -796.66291            0   -796.66274    13345.971 
     233  0.011251051   -796.66294            0   -796.66275    13345.635 
     234  0.012035003   -796.66297            0   -796.66277    13345.288 
     235  0.012835947     -796.663            0   -796.66279    13344.929 
     236   0.01365267   -796.66303            0   -796.66281    13344.558 
     237  0.014483915   -796.66306            0   -796.66283    13344.177 
     238   0.01532844    -796.6631            0   -796.66285    13343.784 
     239  0.016184973   -796.66313            0   -796.66287    13343.381 
     240  0.017052224   -796.66316            0   -796.66289    13342.967 
     241  0.017928886    -796.6632            0   -796.66291    13342.544 
     242   0.01881366   -796.66324            0   -796.66293     13342.11 
     243  0.019705197   -796.66328            0   -796.66295    13341.666 
     244  0.020602204   -796.66331            0   -796.66298    13341.213 
     245  0.021503168   -796.66335            0     -796.663    13340.749 
     246  0.022406639   -796.66339            0   -796.66303     13340.28 
     247  0.023306144   -796.66343            0   -796.66305     13339.79 
     248  0.024157567   -796.66347            0   -796.66308    13339.331 
     249  0.024422685   -796.66352            0   -796.66312     13338.73 
     250  0.018853514   -796.66355            0   -796.66324    13338.532 
     251 0.0020517047   -796.66356            0   -796.66353    13337.904 
     252 0.0012207613   -796.66357            0   -796.66355     13337.83 
     253  0.001418673   -796.66358            0   -796.66356    13337.719 
     254 0.0016361085   -796.66359            0   -796.66356    13337.597 
     255 0.0018678546    -796.6636            0   -796.66357    13337.467 
     256 0.0021135555   -796.66361            0   -796.66358    13337.329 
     257 0.0023728588   -796.66362            0   -796.66359    13337.182 
     258 0.0026453916   -796.66364            0   -796.66359    13337.026 
     259 0.0029307609   -796.66365            0    -796.6636    13336.861 
     260 0.0032285547   -796.66367            0   -796.66361    13336.689 
     261 0.0035383425   -796.66368            0   -796.66362    13336.508 
     262 0.0038596769    -796.6637            0   -796.66363    13336.319 
     263 0.0041920922   -796.66371            0   -796.66365    13336.121 
     264 0.0045351061   -796.66373            0   -796.66366    13335.916 
     265 0.0048882215   -796.66375            0   -796.66367    13335.703 
     266 0.0052509261   -796.66377            0   -796.66368    13335.482 
     267  0.005622694   -796.66379            0    -796.6637    13335.253 
     268 0.0060029856   -796.66381            0   -796.66371    13335.016 
     269 0.0063912496   -796.66383            0   -796.66372    13334.772 
     270 0.0067869235   -796.66385            0   -796.66374    13334.521 
     271 0.0071894348   -796.66387            0   -796.66375    13334.262 
     272 0.0075982027   -796.66389            0   -796.66377    13333.996 
     273   0.00801263   -796.66391            0   -796.66378    13333.723 
     274  0.008432117   -796.66394            0    -796.6638    13333.442 
     275 0.0088560561   -796.66396            0   -796.66382    13333.155 
     276 0.0092838321   -796.66399            0   -796.66384    13332.862 
     277 0.0097148247   -796.66401            0   -796.66385    13332.562 
     278   0.01014838   -796.66404            0   -796.66387    13332.255 
     279  0.010583633   -796.66406            0   -796.66389    13331.944 
     280   0.01101763   -796.66409            0   -796.66391    13331.621 
     281  0.011425494   -796.66412            0   -796.66393     13331.31 
     282  0.011534329   -796.66414            0   -796.66396    13330.938 
     283 0.0087605988   -796.66417            0   -796.66402    13330.744 
     284 0.00092832749   -796.66417            0   -796.66416     13330.44 
     285 0.00060085401   -796.66418            0   -796.66417    13330.382 
     286 0.00070021485   -796.66419            0   -796.66417    13330.306 
     287 0.00080744454   -796.66419            0   -796.66418    13330.224 
     288 0.00092173471    -796.6642            0   -796.66419    13330.136 
     289 0.0010429257   -796.66421            0   -796.66419    13330.042 
     290 0.0011708496   -796.66422            0    -796.6642    13329.942 
     291 0.0013053286   -796.66423            0    -796.6642    13329.837 
     292 0.0014461754   -796.66423            0   -796.66421    13329.726 
     293 0.0015931931   -796.66424            0   -796.66422    13329.609 
     294 0.0017461763   -796.66426            0   -796.66423    13329.486 
     295 0.0019049107   -796.66427            0   -796.66423    13329.358 
     296 0.0020691736   -796.66428            0   -796.66424    13329.225 
     297 0.0022387346   -796.66429            0   -796.66425    13329.086 
     298 0.0024133554    -796.6643            0   -796.66426    13328.941 
     299 0.0025927928   -796.66431            0   -796.66427    13328.791 
     300 0.0027767961   -796.66433            0   -796.66428    13328.636 
     301 0.0029651016   -796.66434            0   -796.66429    13328.475 
     302  0.003157447   -796.66436            0    -796.6643     13328.31 
     303 0.0033535583   -796.66437            0   -796.66432    13328.139 
     304  0.003553163   -796.66438            0   -796.66433    13327.964 
     305 0.0037559747    -796.6644            0   -796.66434    13327.784 
     306 0.0039617154   -796.66442            0   -796.66435    13327.599 
     307 0.0041700849   -796.66443            0   -796.66437    13327.409 
     308  0.004380811   -796.66445            0   -796.66438    13327.215 
     309 0.0045935563   -796.66447            0   -796.66439    13327.016 
     310 0.0048080979   -796.66448            0   -796.66441    13326.813 
     311 0.0050239621    -796.6645            0   -796.66442    13326.606 
     312 0.0052411176   -796.66452            0   -796.66444    13326.394 
     313 0.0054575895   -796.66454            0   -796.66445     13326.18 
     314 0.0056664883   -796.66456            0   -796.66447    13325.957 
     315 0.0057641143   -796.66458            0   -796.66448    13325.746 
     316 0.0047684188    -796.6646            0   -796.66452    13325.509 
     317 0.00080900057    -796.6646            0   -796.66459     13325.41 
     318 0.00021441273   -796.66461            0    -796.6646     13325.36 
     319 0.00025801336   -796.66461            0   -796.66461    13325.315 
     320 0.00030402263   -796.66461            0   -796.66461    13325.267 
     321 0.00035398581   -796.66462            0   -796.66461    13325.215 
     322 0.00040752066   -796.66462            0   -796.66462    13325.159 
     323 0.0004645412   -796.66463            0   -796.66462    13325.099 
     324 0.00052496938   -796.66463            0   -796.66463    13325.035 
     325 0.00058872332   -796.66464            0   -796.66463    13324.968 
     326 0.00065571654   -796.66465            0   -796.66464    13324.896 
     327 0.00072585795   -796.66465            0   -796.66464    13324.821 
     328 0.00079905198   -796.66466            0   -796.66465    13324.742 
     329 0.00087519872   -796.66467            0   -796.66465    13324.659 
     330 0.00095419406   -796.66468            0   -796.66466    13324.572 
     331 0.0010359298   -796.66468            0   -796.66467    13324.481 
     332  0.001120294   -796.66469            0   -796.66467    13324.387 
     333 0.0012071707    -796.6647            0   -796.66468     13324.29 
     334 0.0012964407   -796.66471            0   -796.66469    13324.189 
     335 0.0013879811   -796.66472            0    -796.6647    13324.084 
     336  0.001481666   -796.66473            0   -796.66471    13323.976 
     337 0.0015773665   -796.66474            0   -796.66471    13323.865 
     338 0.0016749507   -796.66475            0   -796.66472     13323.75 
     339 0.0017742841   -796.66476            0   -796.66473    13323.632 
     340 0.0018752296   -796.66477            0   -796.66474    13323.511 
     341 0.0019776482   -796.66478            0   -796.66475    13323.387 
     342 0.0020813984    -796.6648            0   -796.66476     13323.26 
     343 0.0021863371   -796.66481            0   -796.66477    13323.129 
     344 0.0022923193   -796.66482            0   -796.66478    13322.996 
     345 0.0023991988   -796.66483            0   -796.66479     13322.86 
     346 0.0025068277   -796.66485            0   -796.66481    13322.722 
     347 0.0026150549   -796.66486            0   -796.66482     13322.58 
     348 0.0027237112   -796.66487            0   -796.66483    13322.436 
     349 0.0028324348   -796.66489            0   -796.66484     13322.29 
     350 0.0029388345    -796.6649            0   -796.66485     13322.14 
     351 0.0030160065   -796.66492            0   -796.66487    13321.991 
     352  0.002750061   -796.66493            0   -796.66488    13321.836 
     353 0.00078278646   -796.66494            0   -796.66492    13321.748 
     354 1.2791125e-05   -796.66494            0   -796.66494    13321.728 
     355 2.251161e-05   -796.66494            0   -796.66494    13321.715 
     356 3.7061129e-05   -796.66494            0   -796.66494    13321.698 
     357 5.4198365e-05   -796.66494            0   -796.66494    13321.679 
     358 7.1204457e-05   -796.66494            0   -796.66494    13321.657 
     359 8.8598904e-05   -796.66495            0   -796.66494    13321.633 
     360 0.00010738503   -796.66495            0   -796.66495    13321.607 
     361 0.00012785086   -796.66495            0   -796.66495    13321.578 
     362 0.00015001182   -796.66495            0   -796.66495    13321.546 
     363 0.00017384145   -796.66496            0   -796.66495    13321.512 
     364 0.00019930851   -796.66496            0   -796.66496    13321.475 
     365 0.00022637944   -796.66497            0   -796.66496    13321.436 
     366 0.0002550184   -796.66497            0   -796.66496    13321.394 
     367 0.00028518739   -796.66497            0   -796.66497     13321.35 
     368 0.00031684625   -796.66498            0   -796.66497    13321.303 
     369 0.00034995275   -796.66498            0   -796.66498    13321.254 
     370 0.00038446263   -796.66499            0   -796.66498    13321.203 
     371 0.00042032966   -796.66499            0   -796.66499    13321.149 
     372 0.00045750573     -796.665            0   -796.66499    13321.093 
     373 0.00049594049     -796.665            0     -796.665    13321.034 
     374 0.00053558228   -796.66501            0     -796.665    13320.973 
     375 0.00057637779   -796.66502            0   -796.66501     13320.91 
     376 0.00061827199   -796.66502            0   -796.66501    13320.845 
     377 0.0006612083   -796.66503            0   -796.66502    13320.777 
     378 0.00070512866   -796.66504            0   -796.66503    13320.707 
     379 0.00074997371   -796.66504            0   -796.66503    13320.636 
     380 0.00079568271   -796.66505            0   -796.66504    13320.562 
     381 0.00084219382   -796.66506            0   -796.66505    13320.486 
     382 0.00088944432   -796.66507            0   -796.66505    13320.408 
     383 0.00093737027   -796.66508            0   -796.66506    13320.328 
     384 0.00098590612   -796.66508            0   -796.66507    13320.247 
     385 0.0010349867   -796.66509            0   -796.66508    13320.163 
     386 0.0010845439    -796.6651            0   -796.66508    13320.078 
     387 0.0011345139   -796.66511            0   -796.66509    13319.991 
     388 0.0011848206   -796.66512            0    -796.6651    13319.903 
     389 0.0012354166   -796.66513            0   -796.66511    13319.812 
     390 0.0012861707   -796.66514            0   -796.66512    13319.721 
     391 0.0013371515   -796.66515            0   -796.66513    13319.626 
     392 0.0013874183   -796.66516            0   -796.66514    13319.538 
     393 0.0014344598   -796.66517            0   -796.66515    13319.419 
     394  0.001421641   -796.66518            0   -796.66516    13319.407 
     395 0.00089534072   -796.66519            0   -796.66517    13319.141 
     396 2.0090386e-05   -796.66519            0   -796.66519    13319.162 
     397 2.5868247e-05   -796.66519            0   -796.66519    13319.192 
     398 3.0596984e-05   -796.66519            0   -796.66519    13319.212 
     399 3.5308349e-05   -796.66519            0   -796.66519    13319.216 
     400 4.2217779e-05   -796.66519            0   -796.66519    13319.207 
     401 5.0806124e-05    -796.6652            0    -796.6652    13319.192 
     402 6.0335681e-05    -796.6652            0    -796.6652    13319.174 
     403 7.0650896e-05    -796.6652            0    -796.6652    13319.154 
     404 8.1730632e-05    -796.6652            0    -796.6652    13319.132 
     405 9.3561895e-05   -796.66521            0    -796.6652    13319.109 
     406 0.00010612965   -796.66521            0   -796.66521    13319.085 
     407 0.00011941754   -796.66521            0   -796.66521    13319.058 
     408 0.0001334082   -796.66522            0   -796.66521    13319.031 
     409 0.00014808331   -796.66522            0   -796.66522    13319.002 
     410 0.00016342358   -796.66522            0   -796.66522    13318.971 
     411 0.00017940883   -796.66523            0   -796.66522    13318.939 
     412 0.00019601797   -796.66523            0   -796.66523    13318.905 
     413 0.00021322908   -796.66523            0   -796.66523     13318.87 
     414 0.00023101937   -796.66524            0   -796.66523    13318.833 
     415 0.0002493653   -796.66524            0   -796.66524    13318.796 
     416 0.00026824252   -796.66525            0   -796.66524    13318.756 
     417 0.00028762597   -796.66525            0   -796.66525    13318.716 
     418 0.00030748984   -796.66526            0   -796.66525    13318.674 
     419 0.00032780773   -796.66526            0   -796.66526    13318.631 
     420 0.0003485526   -796.66527            0   -796.66526    13318.586 
     421 0.00036969682   -796.66527            0   -796.66527    13318.541 
     422 0.00039121221   -796.66528            0   -796.66527    13318.494 
     423 0.00041307005   -796.66528            0   -796.66528    13318.446 
     424 0.00043524119   -796.66529            0   -796.66528    13318.396 
     425  0.000457696    -796.6653            0   -796.66529    13318.346 
     426 0.00048040455    -796.6653            0    -796.6653    13318.295 
     427 0.00050333634   -796.66531            0    -796.6653    13318.243 
     428 0.00052646108   -796.66532            0   -796.66531    13318.189 
     429 0.00054974695   -796.66532            0   -796.66531    13318.135 
     430 0.00057316511   -796.66533            0   -796.66532     13318.08 
     431 0.00059667681   -796.66534            0   -796.66533    13318.024 
     432 0.00062026234   -796.66535            0   -796.66533    13317.967 
     433 0.00064373887   -796.66535            0   -796.66534    13317.908 
     434 0.00066612544   -796.66536            0   -796.66535    13317.854 
     435 0.00067122583   -796.66537            0   -796.66536    13317.778 
     436 0.00048877948   -796.66538            0   -796.66537    13317.789 
     437 2.9061806e-05   -796.66538            0   -796.66538    13317.729 
     438 3.7516465e-05   -796.66538            0   -796.66538    13317.711 
     439 4.268617e-05   -796.66538            0   -796.66538    13317.698 
     440 4.8532767e-05   -796.66538            0   -796.66538    13317.683 
     441 5.4733396e-05   -796.66538            0   -796.66538    13317.667 
     442 6.1270694e-05   -796.66539            0   -796.66539    13317.651 
     443 6.8135797e-05   -796.66539            0   -796.66539    13317.633 
     444 7.5319853e-05   -796.66539            0   -796.66539    13317.614 
     445 8.2813448e-05   -796.66539            0   -796.66539    13317.595 
     446 9.0606909e-05    -796.6654            0    -796.6654    13317.575 
     447 9.8690017e-05    -796.6654            0    -796.6654    13317.553 
     448 0.00010705229    -796.6654            0    -796.6654    13317.531 
     449 0.00011568274   -796.66541            0   -796.66541    13317.509 
     450 0.00012457015   -796.66541            0   -796.66541    13317.485 
     451 0.00013370277   -796.66541            0   -796.66541     13317.46 
     452 0.00014306879   -796.66542            0   -796.66542    13317.435 
     453 0.00015265567   -796.66542            0   -796.66542    13317.409 
     454 0.00016245122   -796.66543            0   -796.66542    13317.382 
     455 0.00017244182   -796.66543            0   -796.66543    13317.355 
     456 0.00018261555   -796.66543            0   -796.66543    13317.326 
     457 0.00019295596   -796.66544            0   -796.66544    13317.298 
     458 0.00020345297   -796.66544            0   -796.66544    13317.267 
     459 0.00021406991   -796.66545            0   -796.66544     13317.24 
     460 0.00022476398   -796.66545            0   -796.66545    13317.203 
     461 0.00023507969   -796.66546            0   -796.66545    13317.188 
     462 0.00024269326   -796.66546            0   -796.66546    13317.113 
     463 0.00022984222   -796.66547            0   -796.66546    13317.195 
     464 0.00012686098   -796.66547            0   -796.66547    13317.002 
     465 2.0393113e-05   -796.66547            0   -796.66547    13317.068 
     466 1.6962726e-05   -796.66547            0   -796.66547    13317.079 
     467 1.9323039e-05   -796.66547            0   -796.66547    13317.072 
     468 2.2404762e-05   -796.66548            0   -796.66547    13317.063 
     469 2.5700969e-05   -796.66548            0   -796.66548    13317.053 
     470 2.9206459e-05   -796.66548            0   -796.66548    13317.042 
     471 3.2916722e-05   -796.66548            0   -796.66548    13317.031 
     472 3.6827027e-05   -796.66548            0   -796.66548     13317.02 
     473 4.0932365e-05   -796.66548            0   -796.66548    13317.007 
     474 4.5227465e-05   -796.66549            0   -796.66549    13316.995 
     475  4.97068e-05   -796.66549            0   -796.66549    13316.981 
     476 5.4364595e-05   -796.66549            0   -796.66549    13316.967 
     477 5.9194836e-05   -796.66549            0   -796.66549    13316.952 
     478 6.4191274e-05    -796.6655            0    -796.6655    13316.937 
     479 6.9347437e-05    -796.6655            0    -796.6655    13316.921 
     480 7.4656639e-05    -796.6655            0    -796.6655    13316.905 
     481 8.0111985e-05    -796.6655            0    -796.6655    13316.888 
     482 8.5706387e-05   -796.66551            0   -796.66551     13316.87 
     483 9.1432565e-05   -796.66551            0   -796.66551    13316.852 
     484 9.7283066e-05   -796.66551            0   -796.66551    13316.834 
     485 0.00010325027   -796.66552            0   -796.66552    13316.815 
     486 0.0001093264   -796.66552            0   -796.66552    13316.796 
     487 0.00011550354   -796.66552            0   -796.66552    13316.776 
     488 0.00012177363   -796.66553            0   -796.66553    13316.755 
     489 0.00012812843   -796.66553            0   -796.66553    13316.735 
     490 0.00013455976   -796.66554            0   -796.66553    13316.714 
     491 0.00014105896   -796.66554            0   -796.66554    13316.692 
     492 0.00014761816   -796.66554            0   -796.66554    13316.671 
     493 0.00015422692   -796.66555            0   -796.66555    13316.649 
     494 0.00016088084   -796.66555            0   -796.66555    13316.625 
     495 0.0001675472   -796.66556            0   -796.66556    13316.608 
     496 0.00017418482   -796.66556            0   -796.66556    13316.568 
     497 0.00017963501   -796.66557            0   -796.66556    13316.601 
     498 0.00016682659   -796.66557            0   -796.66557    13316.425 
     499 2.7828081e-05   -796.66557            0   -796.66557    13316.518 
     500 1.1440597e-05   -796.66557            0   -796.66557    13316.529 
     501 1.2513586e-05   -796.66557            0   -796.66557    13316.522 
     502 1.4278173e-05   -796.66558            0   -796.66558    13316.516 
     503 1.6157124e-05   -796.66558            0   -796.66558     13316.51 
     504 1.8141659e-05   -796.66558            0   -796.66558    13316.503 
     505 2.0229342e-05   -796.66558            0   -796.66558    13316.496 
     506 2.241741e-05   -796.66558            0   -796.66558    13316.488 
     507 2.470313e-05   -796.66558            0   -796.66558     13316.48 
     508 2.7083557e-05   -796.66559            0   -796.66559    13316.472 
     509 2.9555677e-05   -796.66559            0   -796.66559    13316.463 
     510 3.2116309e-05   -796.66559            0   -796.66559    13316.454 
     511 3.4762194e-05   -796.66559            0   -796.66559    13316.445 
     512 3.7489919e-05   -796.66559            0   -796.66559    13316.435 
     513 4.0296007e-05    -796.6656            0    -796.6656    13316.425 
     514 4.3176822e-05    -796.6656            0    -796.6656    13316.415 
     515 4.6128704e-05    -796.6656            0    -796.6656    13316.405 
     516 4.9147782e-05    -796.6656            0    -796.6656    13316.394 
     517 5.2230285e-05   -796.66561            0   -796.66561    13316.383 
     518 5.5372022e-05   -796.66561            0   -796.66561    13316.371 
     519 5.8569319e-05   -796.66561            0   -796.66561     13316.36 
     520 6.1817111e-05   -796.66562            0   -796.66561    13316.348 
     521 6.5112378e-05   -796.66562            0   -796.66562    13316.336 
     522 6.8443338e-05   -796.66562            0   -796.66562    13316.325 
     523 7.1794111e-05   -796.66562            0   -796.66562    13316.309 
     524 7.4985177e-05   -796.66563            0   -796.66563    13316.307 
     525 7.6946614e-05   -796.66563            0   -796.66563    13316.266 
     526 6.9014131e-05   -796.66563            0   -796.66563    13316.325 
     527 2.5528595e-05   -796.66564            0   -796.66564    13316.244 
     528 5.9548911e-06   -796.66564            0   -796.66564    13316.265 
     529 5.6736003e-06   -796.66564            0   -796.66564    13316.264 
     530 6.5910669e-06   -796.66564            0   -796.66564    13316.261 
     531 7.5897266e-06   -796.66564            0   -796.66564    13316.257 
     532 8.6539349e-06   -796.66564            0   -796.66564    13316.253 
     533 9.7823558e-06   -796.66564            0   -796.66564    13316.249 
     534 1.0973579e-05   -796.66564            0   -796.66564    13316.245 
     535 1.222611e-05   -796.66564            0   -796.66564     13316.24 
     536 1.3538372e-05   -796.66565            0   -796.66565    13316.235 
     537 1.4908713e-05   -796.66565            0   -796.66565     13316.23 
     538 1.6335402e-05   -796.66565            0   -796.66565    13316.225 
     539 1.7816632e-05   -796.66565            0   -796.66565     13316.22 
     540 1.9350526e-05   -796.66565            0   -796.66565    13316.214 
     541 2.0935139e-05   -796.66565            0   -796.66565    13316.208 
     542 2.2568456e-05   -796.66566            0   -796.66566    13316.202 
     543  2.42484e-05   -796.66566            0   -796.66566    13316.196 
     544 2.5972831e-05   -796.66566            0   -796.66566    13316.189 
     545 2.7739552e-05   -796.66566            0   -796.66566    13316.183 
     546 2.9546308e-05   -796.66566            0   -796.66566    13316.176 
     547 3.1390794e-05   -796.66567            0   -796.66567    13316.169 
     548 3.3270655e-05   -796.66567            0   -796.66567    13316.162 
     549 3.5183488e-05   -796.66567            0   -796.66567    13316.155 
     550 3.7126849e-05   -796.66567            0   -796.66567    13316.148 
     551 3.909825e-05   -796.66568            0   -796.66568    13316.141 
     552 4.1095177e-05   -796.66568            0   -796.66568    13316.133 
     553 4.3115054e-05   -796.66568            0   -796.66568    13316.126 
     554 4.5155342e-05   -796.66568            0   -796.66568    13316.118 
     555 4.7213236e-05   -796.66569            0   -796.66569    13316.111 
     556 4.9286006e-05   -796.66569            0   -796.66569    13316.103 
     557 5.1365114e-05   -796.66569            0   -796.66569    13316.096 
     558 5.3401645e-05    -796.6657            0    -796.6657    13316.087 
     559 5.4805333e-05    -796.6657            0    -796.6657    13316.085 
     560 4.9212628e-05    -796.6657            0    -796.6657    13316.058 
     561  1.34132e-05    -796.6657            0    -796.6657    13316.085 
     562 5.6428733e-07    -796.6657            0    -796.6657    13316.079 
     563 8.6083048e-07    -796.6657            0    -796.6657    13316.073 
     564 1.1959263e-06   -796.66571            0   -796.66571    13316.069 
     565 1.5318851e-06   -796.66571            0   -796.66571    13316.067 
     566 1.8880737e-06   -796.66571            0   -796.66571    13316.065 
     567 2.2778009e-06   -796.66571            0   -796.66571    13316.064 
     568 2.7026699e-06   -796.66571            0   -796.66571    13316.062 
     569 3.1621934e-06   -796.66571            0   -796.66571    13316.061 
     570 3.6557912e-06   -796.66571            0   -796.66571    13316.059 
     571 4.1828563e-06   -796.66571            0   -796.66571    13316.057 
     572 4.7427406e-06   -796.66571            0   -796.66571    13316.055 
     573 5.3347533e-06   -796.66571            0   -796.66571    13316.053 
     574 5.9581617e-06   -796.66571            0   -796.66571    13316.051 
     575 6.612192e-06   -796.66571            0   -796.66571    13316.049 
     576 7.2960309e-06   -796.66572            0   -796.66571    13316.047 
     577 8.0088257e-06   -796.66572            0   -796.66572    13316.044 
     578 8.7496865e-06   -796.66572            0   -796.66572    13316.042 
     579 9.5176865e-06   -796.66572            0   -796.66572    13316.039 
     580 1.0311864e-05   -796.66572            0   -796.66572    13316.037 
     581 1.1131222e-05   -796.66572            0   -796.66572    13316.034 
     582 1.1974732e-05   -796.66572            0   -796.66572    13316.031 
     583 1.2841334e-05   -796.66572            0   -796.66572    13316.028 
     584 1.3729938e-05   -796.66573            0   -796.66573    13316.025 
     585 1.4639425e-05   -796.66573            0   -796.66573    13316.022 
     586 1.5568649e-05   -796.66573            0   -796.66573    13316.019 
     587 1.6516438e-05   -796.66573            0   -796.66573    13316.016 
     588 1.7481598e-05   -796.66573            0   -796.66573    13316.013 
     589 1.8462913e-05   -796.66574            0   -796.66574     13316.01 
     590 1.9459141e-05   -796.66574            0   -796.66574    13316.007 
     591 2.0469025e-05   -796.66574            0   -796.66574    13316.004 
     592 2.1491288e-05   -796.66574            0   -796.66574    13316.001 
     593 2.2524642e-05   -796.66574            0   -796.66574    13315.998 
     594 2.3567776e-05   -796.66575            0   -796.66575    13315.996 
     595 2.4619383e-05   -796.66575            0   -796.66575    13315.993 
     596 2.5678106e-05   -796.66575            0   -796.66575     13315.99 
     597 2.6742685e-05   -796.66575            0   -796.66575    13315.987 
     598 2.7811523e-05   -796.66576            0   -796.66576    13315.984 
     599 2.8883816e-05   -796.66576            0   -796.66576    13315.982 
     600 2.9953295e-05   -796.66576            0   -796.66576     13315.98 
     601 3.0990132e-05   -796.66576            0   -796.66576    13315.976 
     602 3.1383902e-05   -796.66577            0   -796.66577     13315.98 
     603 2.3598096e-05   -796.66577            0   -796.66577    13315.957 
     604 1.2101189e-06   -796.66577            0   -796.66577    13315.968 
     605 1.4840962e-06   -796.66577            0   -796.66577    13315.972 
     606 1.6013216e-06   -796.66577            0   -796.66577    13315.972 
     607 1.8404965e-06   -796.66577            0   -796.66577    13315.971 
     608 2.0952915e-06   -796.66577            0   -796.66577    13315.971 
     609 2.365289e-06   -796.66577            0   -796.66577     13315.97 
     610 2.6501585e-06   -796.66577            0   -796.66577     13315.97 
     611 2.9495506e-06   -796.66577            0   -796.66577    13315.969 
     612 3.2630997e-06   -796.66578            0   -796.66578    13315.969 
     613 3.5904211e-06   -796.66578            0   -796.66578    13315.969 
     614 3.9311129e-06   -796.66578            0   -796.66578    13315.968 
     615 4.2847556e-06   -796.66578            0   -796.66578    13315.968 
     616 4.6509136e-06   -796.66578            0   -796.66578    13315.967 
     617 5.0291348e-06   -796.66578            0   -796.66578    13315.967 
     618 5.418952e-06   -796.66578            0   -796.66578    13315.966 
     619 5.8198826e-06   -796.66578            0   -796.66578    13315.966 
     620 6.2314307e-06   -796.66578            0   -796.66578    13315.965 
     621 6.6530855e-06   -796.66579            0   -796.66579    13315.965 
     622 7.0843251e-06   -796.66579            0   -796.66579    13315.965 
     623 7.5246121e-06   -796.66579            0   -796.66579    13315.964 
     624 7.9734033e-06   -796.66579            0   -796.66579    13315.964 
     625 8.4301319e-06   -796.66579            0   -796.66579    13315.964 
     626 8.8942405e-06   -796.66579            0   -796.66579    13315.964 
     627 9.3650806e-06   -796.66579            0   -796.66579    13315.964 
     628 9.8419481e-06    -796.6658            0    -796.6658    13315.964 
     629 1.0322626e-05    -796.6658            0    -796.6658    13315.964 
     630 1.0796647e-05    -796.6658            0    -796.6658    13315.964 
     631 1.1176338e-05    -796.6658            0    -796.6658    13315.965 
     632 1.0753476e-05    -796.6658            0    -796.6658    13315.962 
     633 5.9377536e-06    -796.6658            0    -796.6658     13315.97 
     634 5.1120671e-07    -796.6658            0    -796.6658    13315.966 
     635   7.4263e-07   -796.66581            0   -796.66581    13315.965 
     636 8.6632189e-07   -796.66581            0   -796.66581    13315.965 
     637 1.0023612e-06   -796.66581            0   -796.66581    13315.966 
     638 1.1477115e-06   -796.66581            0   -796.66581    13315.966 
     639 1.3021899e-06   -796.66581            0   -796.66581    13315.966 
     640 1.4656115e-06   -796.66581            0   -796.66581    13315.966 
     641 1.6377796e-06   -796.66581            0   -796.66581    13315.966 
     642 1.8184862e-06   -796.66581            0   -796.66581    13315.967 
     643 2.0075129e-06   -796.66581            0   -796.66581    13315.967 
     644 2.2046303e-06   -796.66581            0   -796.66581    13315.967 
     645 2.4095991e-06   -796.66581            0   -796.66581    13315.968 
     646 2.6221697e-06   -796.66581            0   -796.66581    13315.968 
     647 2.8420831e-06   -796.66581            0   -796.66581    13315.969 
     648 3.0690709e-06   -796.66581            0   -796.66581    13315.969 
     649 3.3028556e-06   -796.66582            0   -796.66582     13315.97 
     650 3.5431512e-06   -796.66582            0   -796.66582    13315.971 
     651 3.7896634e-06   -796.66582            0   -796.66582    13315.971 
     652  4.04209e-06   -796.66582            0   -796.66582    13315.972 
     653 4.3001212e-06   -796.66582            0   -796.66582    13315.973 
     654 4.5634401e-06   -796.66582            0   -796.66582    13315.974 
     655 4.831723e-06   -796.66582            0   -796.66582    13315.975 
     656 5.1046402e-06   -796.66582            0   -796.66582    13315.976 
     657 5.3818548e-06   -796.66583            0   -796.66583    13315.977 
     658 5.6630271e-06   -796.66583            0   -796.66583    13315.978 
     659 5.9478046e-06   -796.66583            0   -796.66583     13315.98 
     660 6.235841e-06   -796.66583            0   -796.66583    13315.981 
     661 6.5266861e-06   -796.66583            0   -796.66583    13315.983 
     662 6.8195647e-06   -796.66583            0   -796.66583    13315.984 
     663 7.1088301e-06   -796.66583            0   -796.66583    13315.986 
     664 7.343136e-06   -796.66584            0   -796.66584    13315.987 
     665 6.967416e-06   -796.66584            0   -796.66584    13315.992 
     666 3.0170559e-06   -796.66584            0   -796.66584    13315.988 
     667 8.898527e-08   -796.66584            0   -796.66584    13315.989 
     668 1.5394392e-07   -796.66584            0   -796.66584    13315.991 
     669 2.2588325e-07   -796.66584            0   -796.66584    13315.992 
     670 2.8518002e-07   -796.66584            0   -796.66584    13315.992 
     671 3.4449434e-07   -796.66584            0   -796.66584    13315.993 
     672 4.0872751e-07   -796.66584            0   -796.66584    13315.993 
     673 4.7819424e-07   -796.66584            0   -796.66584    13315.994 
     674 5.528227e-07   -796.66584            0   -796.66584    13315.995 
     675 6.3252586e-07   -796.66584            0   -796.66584    13315.995 
     676 7.1720987e-07   -796.66584            0   -796.66584    13315.996 
     677 8.0677465e-07   -796.66584            0   -796.66584    13315.997 
     678 9.0111397e-07   -796.66584            0   -796.66584    13315.998 
     679 1.0001157e-06   -796.66584            0   -796.66584    13315.998 
     680 1.1036617e-06   -796.66584            0   -796.66584    13315.999 
     681 1.2116282e-06   -796.66584            0   -796.66584        13316 
     682 1.3238861e-06   -796.66585            0   -796.66585    13316.001 
     683 1.4403006e-06   -796.66585            0   -796.66585    13316.003 
     684 1.5607319e-06   -796.66585            0   -796.66585    13316.004 
     685 1.6850348e-06   -796.66585            0   -796.66585    13316.005 
     686 1.8130597e-06   -796.66585            0   -796.66585    13316.007 
     687 1.9446519e-06   -796.66585            0   -796.66585    13316.008 
     688 2.0796524e-06   -796.66585            0   -796.66585    13316.009 
     689 2.2178978e-06   -796.66585            0   -796.66585    13316.011 
     690 2.3592205e-06   -796.66585            0   -796.66585    13316.013 
     691 2.5034492e-06   -796.66585            0   -796.66585    13316.015 
     692 2.6504085e-06   -796.66585            0   -796.66585    13316.016 
     693 2.7999197e-06   -796.66586            0   -796.66586    13316.018 
     694 2.9518006e-06   -796.66586            0   -796.66586    13316.021 
     695 3.1058663e-06   -796.66586            0   -796.66586    13316.023 
     696 3.261928e-06   -796.66586            0   -796.66586    13316.025 
     697 3.4197961e-06   -796.66586            0   -796.66586    13316.027 
     698 3.5792736e-06   -796.66586            0   -796.66586     13316.03 
     699 3.7401741e-06   -796.66586            0   -796.66586    13316.033 
     700 3.9022734e-06   -796.66586            0   -796.66586    13316.036 
     701 4.065445e-06   -796.66587            0   -796.66587    13316.038 
     702 4.2292283e-06   -796.66587            0   -796.66587    13316.042 
     703 4.3938731e-06   -796.66587            0   -796.66587    13316.045 
     704 4.5523125e-06   -796.66587            0   -796.66587    13316.049 
     705 4.6517879e-06   -796.66587            0   -796.66587    13316.047 
     706 3.838939e-06   -796.66587            0   -796.66587    13316.069 
     707 4.128263e-07   -796.66587            0   -796.66587    13316.056 
     708 2.5230015e-07   -796.66587            0   -796.66587    13316.056 
     709 2.8834663e-07   -796.66587            0   -796.66587    13316.057 
     710 3.292669e-07   -796.66587            0   -796.66587    13316.058 
     711 3.7271477e-07   -796.66587            0   -796.66587    13316.059 
     712 4.186432e-07   -796.66587            0   -796.66587     13316.06 
     713 4.669843e-07   -796.66588            0   -796.66587    13316.061 
     714 5.176868e-07   -796.66588            0   -796.66588    13316.063 
     715 5.7068811e-07   -796.66588            0   -796.66588    13316.064 
     716 6.2592804e-07   -796.66588            0   -796.66588    13316.066 
     717 6.8333977e-07   -796.66588            0   -796.66588    13316.067 
     718 7.428571e-07   -796.66588            0   -796.66588    13316.069 
     719 8.0440788e-07   -796.66588            0   -796.66588     13316.07 
     720 8.6792112e-07   -796.66588            0   -796.66588    13316.072 
     721 9.3331874e-07   -796.66588            0   -796.66588    13316.074 
     722 1.0005266e-06   -796.66588            0   -796.66588    13316.076 
     723 1.0694587e-06   -796.66588            0   -796.66588    13316.078 
     724 1.1400421e-06   -796.66588            0   -796.66588     13316.08 
     725 1.2121747e-06   -796.66588            0   -796.66588    13316.082 
     726 1.2858013e-06   -796.66588            0   -796.66588    13316.085 
     727 1.3607579e-06   -796.66588            0   -796.66588    13316.087 
     728 1.4370635e-06   -796.66589            0   -796.66589     13316.09 
     729 1.5140657e-06   -796.66589            0   -796.66589    13316.093 
     730 1.591185e-06   -796.66589            0   -796.66589    13316.094 
     731 1.6570587e-06   -796.66589            0   -796.66589      13316.1 
     732 1.6525183e-06   -796.66589            0   -796.66589    13316.096 
     733 1.2001613e-06   -796.66589            0   -796.66589    13316.112 
     734 2.3907708e-07   -796.66589            0   -796.66589    13316.104 
     735 1.493996e-07   -796.66589            0   -796.66589    13316.105 
     736 1.7334031e-07   -796.66589            0   -796.66589    13316.106 
     737 1.9913633e-07   -796.66589            0   -796.66589    13316.107 
     738 2.2660107e-07   -796.66589            0   -796.66589    13316.108 
     739 2.5570671e-07   -796.66589            0   -796.66589    13316.109 
     740 2.8641831e-07   -796.66589            0   -796.66589     13316.11 
     741 3.1870098e-07   -796.66589            0   -796.66589    13316.112 
     742 3.5251698e-07   -796.66589            0   -796.66589    13316.113 
     743 3.8782722e-07   -796.66589            0   -796.66589    13316.115 
     744 4.2459038e-07   -796.66589            0   -796.66589    13316.116 
     745 4.6276363e-07   -796.66589            0   -796.66589    13316.118 
     746 5.0230209e-07   -796.66589            0   -796.66589     13316.12 
     747 5.431595e-07    -796.6659            0    -796.6659    13316.122 
     748 5.852875e-07    -796.6659            0    -796.6659    13316.124 
     749 6.2863669e-07    -796.6659            0    -796.6659    13316.126 
     750 6.7315528e-07    -796.6659            0    -796.6659    13316.128 
     751 7.1879126e-07    -796.6659            0    -796.6659     13316.13 
     752 7.6548889e-07    -796.6659            0    -796.6659    13316.132 
     753 8.1319524e-07    -796.6659            0    -796.6659    13316.135 
     754 8.6184748e-07    -796.6659            0    -796.6659    13316.137 
     755 9.1139944e-07    -796.6659            0    -796.6659     13316.14 
     756 9.6176183e-07    -796.6659            0    -796.6659    13316.143 
     757 1.012937e-06    -796.6659            0    -796.6659    13316.146 
     758 1.0646372e-06    -796.6659            0    -796.6659    13316.149 
     759 1.1169694e-06    -796.6659            0    -796.6659    13316.151 
     760 1.1658151e-06    -796.6659            0    -796.6659    13316.157 
     761 1.1920851e-06   -796.66591            0   -796.66591    13316.154 
     762 9.8054423e-07   -796.66591            0   -796.66591    13316.169 
     763 1.7703137e-07   -796.66591            0   -796.66591    13316.163 
     764 9.1588016e-08   -796.66591            0   -796.66591    13316.163 
     765 1.0506517e-07   -796.66591            0   -796.66591    13316.164 
     766 1.2111206e-07   -796.66591            0   -796.66591    13316.165 
     767 1.382303e-07   -796.66591            0   -796.66591    13316.166 
     768 1.5640269e-07   -796.66591            0   -796.66591    13316.167 
     769 1.7560422e-07   -796.66591            0   -796.66591    13316.168 
     770 1.9581452e-07   -796.66591            0   -796.66591     13316.17 
     771 2.1700953e-07   -796.66591            0   -796.66591    13316.171 
     772 2.3916543e-07   -796.66591            0   -796.66591    13316.173 
     773 2.6225617e-07   -796.66591            0   -796.66591    13316.174 
     774 2.8625542e-07   -796.66591            0   -796.66591    13316.176 
     775 3.1113483e-07   -796.66591            0   -796.66591    13316.178 
     776 3.3686593e-07   -796.66591            0   -796.66591     13316.18 
     777 3.6341793e-07   -796.66591            0   -796.66591    13316.182 
     778 3.9076067e-07   -796.66591            0   -796.66591    13316.184 
     779 4.1886044e-07   -796.66591            0   -796.66591    13316.186 
     780 4.4768661e-07   -796.66591            0   -796.66591    13316.189 
     781 4.7720042e-07   -796.66591            0   -796.66591    13316.191 
     782 5.0737557e-07   -796.66591            0   -796.66591    13316.193 
     783 5.3815739e-07   -796.66591            0   -796.66591    13316.196 
     784 5.695478e-07   -796.66592            0   -796.66592    13316.199 
     785 6.0140562e-07   -796.66592            0   -796.66592    13316.202 
     786 6.3387359e-07   -796.66592            0   -796.66592    13316.204 
     787 6.6594049e-07   -796.66592            0   -796.66592    13316.208 
     788 6.965858e-07   -796.66592            0   -796.66592    13316.209 
     789 6.9793837e-07   -796.66592            0   -796.66592    13316.218 
     790 4.7898371e-07   -796.66592            0   -796.66592     13316.21 
     791 6.2372759e-08   -796.66592            0   -796.66592    13316.214 
     792 4.6083671e-08   -796.66592            0   -796.66592    13316.217 
     793 4.9341969e-08   -796.66592            0   -796.66592    13316.218 
     794   5.8351e-08   -796.66592            0   -796.66592    13316.219 
     795 6.8163389e-08   -796.66592            0   -796.66592     13316.22 
     796 7.8698989e-08   -796.66592            0   -796.66592    13316.221 
     797 8.9946131e-08   -796.66592            0   -796.66592    13316.222 
     798 1.0189215e-07   -796.66592            0   -796.66592    13316.223 
     799 1.1452354e-07   -796.66592            0   -796.66592    13316.224 
     800 1.2782597e-07   -796.66592            0   -796.66592    13316.226 
     801 1.4178426e-07   -796.66592            0   -796.66592    13316.227 
     802 1.5638245e-07   -796.66592            0   -796.66592    13316.229 
     803 1.7160375e-07   -796.66592            0   -796.66592    13316.231 
     804 1.8743062e-07   -796.66592            0   -796.66592    13316.232 
     805 2.0384472e-07   -796.66592            0   -796.66592    13316.234 
     806  2.20827e-07   -796.66592            0   -796.66592    13316.236 
     807 2.3835764e-07   -796.66592            0   -796.66592    13316.238 
     808 2.5641612e-07   -796.66592            0   -796.66592     13316.24 
     809 2.7498123e-07   -796.66593            0   -796.66593    13316.242 
     810 2.9403105e-07   -796.66593            0   -796.66593    13316.245 
     811 3.1354304e-07   -796.66593            0   -796.66593    13316.247 
     812 3.3349395e-07   -796.66593            0   -796.66593     13316.25 
     813 3.5385999e-07   -796.66593            0   -796.66593    13316.252 
     814 3.7461658e-07   -796.66593            0   -796.66593    13316.255 
     815 3.9573896e-07   -796.66593            0   -796.66593    13316.258 
     816 4.1720075e-07   -796.66593            0   -796.66593    13316.261 
     817 4.3897782e-07   -796.66593            0   -796.66593    13316.264 
     818 4.6103745e-07   -796.66593            0   -796.66593    13316.267 
     819 4.8337028e-07   -796.66593            0   -796.66593     13316.27 
     820 5.0589151e-07   -796.66593            0   -796.66593    13316.273 
     821 5.2876232e-07   -796.66593            0   -796.66593    13316.277 
     822 5.5135988e-07   -796.66593            0   -796.66593    13316.281 
     823 5.7697164e-07   -796.66593            0   -796.66593    13316.281 
     824 5.752946e-07   -796.66593            0   -796.66593    13316.295 
     825 9.5470477e-08   -796.66593            0   -796.66593    13316.289 
     826 3.841526e-08   -796.66593            0   -796.66593    13316.288 
     827 3.8527582e-08   -796.66593            0   -796.66593    13316.289 
     828 4.4685358e-08   -796.66593            0   -796.66593     13316.29 
     829 5.1311438e-08   -796.66594            0   -796.66594    13316.292 
     830 5.8373875e-08   -796.66594            0   -796.66594    13316.293 
     831 6.585578e-08   -796.66594            0   -796.66594    13316.294 
     832 7.375167e-08   -796.66594            0   -796.66594    13316.295 
     833 8.205076e-08   -796.66594            0   -796.66594    13316.297 
     834 9.0744862e-08   -796.66594            0   -796.66594    13316.298 
     835 9.9822934e-08   -796.66594            0   -796.66594      13316.3 
     836 1.0927558e-07   -796.66594            0   -796.66594    13316.301 
     837 1.1909073e-07   -796.66594            0   -796.66594    13316.303 
     838 1.292584e-07   -796.66594            0   -796.66594    13316.305 
     839 1.397648e-07   -796.66594            0   -796.66594    13316.307 
     840 1.5060055e-07   -796.66594            0   -796.66594    13316.309 
     841 1.6174816e-07   -796.66594            0   -796.66594    13316.311 
     842 1.732028e-07   -796.66594            0   -796.66594    13316.313 
     843 1.8493512e-07   -796.66594            0   -796.66594    13316.316 
     844 1.9696355e-07   -796.66594            0   -796.66594    13316.318 
     845 2.0920646e-07   -796.66594            0   -796.66594    13316.321 
     846 2.2182616e-07   -796.66594            0   -796.66594    13316.323 
     847 2.3453903e-07   -796.66594            0   -796.66594    13316.326 
     848 2.4929495e-07   -796.66594            0   -796.66594    13316.327 
     849 2.694569e-07   -796.66594            0   -796.66594    13316.334 
     850 2.8108161e-07   -796.66594            0   -796.66594    13316.328 
     851 7.587095e-08   -796.66594            0   -796.66594    13316.334 
     852 2.3211816e-08   -796.66594            0   -796.66594    13316.335 
     853 2.7270134e-08   -796.66594            0   -796.66594    13316.336 
     854 3.1703821e-08   -796.66594            0   -796.66594    13316.337 
     855 3.6456767e-08   -796.66594            0   -796.66594    13316.338 
     856 4.1519892e-08   -796.66594            0   -796.66594    13316.339 
     857 4.6888439e-08   -796.66594            0   -796.66594     13316.34 
     858 5.2555882e-08   -796.66594            0   -796.66594    13316.341 
     859 5.8516059e-08   -796.66594            0   -796.66594    13316.343 
     860 6.4761959e-08   -796.66594            0   -796.66594    13316.344 
     861 7.1286601e-08   -796.66595            0   -796.66595    13316.346 
     862 7.808228e-08   -796.66595            0   -796.66595    13316.347 
     863 8.5141343e-08   -796.66595            0   -796.66595    13316.349 
     864 9.2455306e-08   -796.66595            0   -796.66595    13316.351 
     865 1.0001601e-07   -796.66595            0   -796.66595    13316.353 
     866 1.0781399e-07   -796.66595            0   -796.66595    13316.355 
     867 1.1584105e-07   -796.66595            0   -796.66595    13316.357 
     868 1.2408585e-07   -796.66595            0   -796.66595    13316.359 
     869 1.3254216e-07   -796.66595            0   -796.66595    13316.361 
     870 1.4119242e-07   -796.66595            0   -796.66595    13316.364 
     871 1.5004314e-07   -796.66595            0   -796.66595    13316.366 
     872 1.5904578e-07   -796.66595            0   -796.66595    13316.368 
     873  1.68302e-07   -796.66595            0   -796.66595    13316.371 
     874 1.7763988e-07   -796.66595            0   -796.66595    13316.374 
     875 1.8869608e-07   -796.66595            0   -796.66595    13316.375 
     876 2.0636983e-07   -796.66595            0   -796.66595    13316.382 
     877 2.2873458e-07   -796.66595            0   -796.66595    13316.376 
     878 4.5854215e-08   -796.66595            0   -796.66595    13316.381 
     879 1.6233103e-08   -796.66595            0   -796.66595    13316.382 
     880 1.6599671e-08   -796.66595            0   -796.66595    13316.383 
     881 1.9534869e-08   -796.66595            0   -796.66595    13316.384 
     882 2.2703303e-08   -796.66595            0   -796.66595    13316.385 
     883 2.6096193e-08   -796.66595            0   -796.66595    13316.386 
     884 2.9710424e-08   -796.66595            0   -796.66595    13316.387 
     885 3.3541645e-08   -796.66595            0   -796.66595    13316.388 
     886 3.7585657e-08   -796.66595            0   -796.66595     13316.39 
     887 4.1837755e-08   -796.66595            0   -796.66595    13316.391 
     888 4.6293149e-08   -796.66595            0   -796.66595    13316.392 
     889 5.0946639e-08   -796.66595            0   -796.66595    13316.394 
     890 5.5792928e-08   -796.66595            0   -796.66595    13316.395 
     891 6.0826287e-08   -796.66595            0   -796.66595    13316.397 
     892 6.6040983e-08   -796.66595            0   -796.66595    13316.399 
     893  7.14307e-08   -796.66595            0   -796.66595    13316.401 
     894 7.6989427e-08   -796.66595            0   -796.66595    13316.402 
     895 8.2709999e-08   -796.66595            0   -796.66595    13316.404 
     896 8.8586746e-08   -796.66596            0   -796.66596    13316.406 
     897 9.4610352e-08   -796.66596            0   -796.66596    13316.409 
     898 1.0077864e-07   -796.66596            0   -796.66596    13316.411 
     899 1.0707257e-07   -796.66596            0   -796.66596    13316.413 
     900 1.135144e-07   -796.66596            0   -796.66596    13316.415 
     901 1.2002764e-07   -796.66596            0   -796.66596    13316.418 
     902 1.2687792e-07   -796.66596            0   -796.66596     13316.42 
     903 1.3402783e-07   -796.66596            0   -796.66596    13316.424 
     904 1.4740446e-07   -796.66596            0   -796.66596    13316.423 
     905 1.3528275e-07   -796.66596            0   -796.66596    13316.431 
     906 1.529344e-08   -796.66596            0   -796.66596    13316.429 
     907 9.8429266e-09   -796.66596            0   -796.66596    13316.428 
     908 8.2606601e-09   -796.66596            0   -796.66596    13316.429 
     909 9.8416589e-09   -796.66596            0   -796.66596    13316.429 
     910 1.1765821e-08   -796.66596            0   -796.66596     13316.43 
     911 1.3857408e-08   -796.66596            0   -796.66596    13316.431 
     912 1.6112018e-08   -796.66596            0   -796.66596    13316.432 
     913 1.8527249e-08   -796.66596            0   -796.66596    13316.433 
     914 2.1100359e-08   -796.66596            0   -796.66596    13316.434 
     915 2.3828453e-08   -796.66596            0   -796.66596    13316.435 
     916 2.6708426e-08   -796.66596            0   -796.66596    13316.436 
     917 2.9736995e-08   -796.66596            0   -796.66596    13316.438 
     918 3.2910685e-08   -796.66596            0   -796.66596    13316.439 
     919 3.6225842e-08   -796.66596            0   -796.66596     13316.44 
     920 3.9678626e-08   -796.66596            0   -796.66596    13316.442 
     921 4.3265032e-08   -796.66596            0   -796.66596    13316.443 
     922 4.6980862e-08   -796.66596            0   -796.66596    13316.445 
     923 5.0821781e-08   -796.66596            0   -796.66596    13316.447 
     924 5.4783239e-08   -796.66596            0   -796.66596    13316.448 
     925 5.8860606e-08   -796.66596            0   -796.66596     13316.45 
     926 6.3048942e-08   -796.66596            0   -796.66596    13316.452 
     927 6.7343475e-08   -796.66596            0   -796.66596    13316.454 
     928 7.1738566e-08   -796.66596            0   -796.66596    13316.456 
     929 7.6230147e-08   -796.66596            0   -796.66596    13316.458 
     930 8.0809688e-08   -796.66596            0   -796.66596    13316.461 
     931 8.5480145e-08   -796.66596            0   -796.66596    13316.463 
     932 9.0212089e-08   -796.66596            0   -796.66596    13316.465 
     933 9.5078556e-08   -796.66596            0   -796.66596    13316.468 
     934 9.9903185e-08   -796.66596            0   -796.66596    13316.471 
     935 1.0609566e-07   -796.66597            0   -796.66597    13316.472 
     936 1.0910464e-07   -796.66597            0   -796.66597    13316.478 
     937 2.4102227e-08   -796.66597            0   -796.66597    13316.476 
     938 7.5816186e-09   -796.66597            0   -796.66597    13316.476 
     939 8.7238275e-09   -796.66597            0   -796.66597    13316.477 
     940  1.02341e-08   -796.66597            0   -796.66597    13316.478 
     941 1.1858815e-08   -796.66597            0   -796.66597    13316.479 
     942 1.3598034e-08   -796.66597            0   -796.66597     13316.48 
     943 1.5447666e-08   -796.66597            0   -796.66597    13316.481 
     944 1.7406635e-08   -796.66597            0   -796.66597    13316.482 
     945 1.9472006e-08   -796.66597            0   -796.66597    13316.483 
     946 2.1642009e-08   -796.66597            0   -796.66597    13316.484 
     947 2.3913584e-08   -796.66597            0   -796.66597    13316.485 
     948 2.628476e-08   -796.66597            0   -796.66597    13316.487 
     949 2.8751991e-08   -796.66597            0   -796.66597    13316.488 
     950 3.1313546e-08   -796.66597            0   -796.66597    13316.489 
     951 3.3964701e-08   -796.66597            0   -796.66597    13316.491 
     952 3.670528e-08   -796.66597            0   -796.66597    13316.493 
     953 3.9526682e-08   -796.66597            0   -796.66597    13316.494 
     954 4.243594e-08   -796.66597            0   -796.66597    13316.496 
     955 4.5406646e-08   -796.66597            0   -796.66597    13316.498 
     956 4.8481713e-08   -796.66597            0   -796.66597      13316.5 
     957 5.1516817e-08   -796.66597            0   -796.66597    13316.502 
     958 5.468392e-08   -796.66597            0   -796.66597    13316.503 
     959 5.6089164e-08   -796.66597            0   -796.66597    13316.507 
     960 4.4672301e-08   -796.66597            0   -796.66597    13316.505 
     961 9.0092216e-09   -796.66597            0   -796.66597    13316.507 
     962 5.1061539e-09   -796.66597            0   -796.66597    13316.508 
     963 6.0035972e-09   -796.66597            0   -796.66597    13316.509 
     964 7.1135199e-09   -796.66597            0   -796.66597    13316.509 
     965 8.3153104e-09   -796.66597            0   -796.66597     13316.51 
     966 9.6057994e-09   -796.66597            0   -796.66597    13316.511 
     967 1.0983925e-08   -796.66597            0   -796.66597    13316.512 
     968 1.2447962e-08   -796.66597            0   -796.66597    13316.513 
     969 1.3996371e-08   -796.66597            0   -796.66597    13316.514 
     970 1.5627315e-08   -796.66597            0   -796.66597    13316.515 
     971 1.7339019e-08   -796.66597            0   -796.66597    13316.516 
     972 1.9129449e-08   -796.66597            0   -796.66597    13316.517 
     973 2.0996655e-08   -796.66597            0   -796.66597    13316.519 
     974 2.2938362e-08   -796.66597            0   -796.66597     13316.52 
     975 2.4952531e-08   -796.66597            0   -796.66597    13316.521 
     976 2.7036513e-08   -796.66597            0   -796.66597    13316.523 
     977 2.9188465e-08   -796.66597            0   -796.66597    13316.524 
     978 3.1404785e-08   -796.66597            0   -796.66597    13316.526 
     979 3.368513e-08   -796.66597            0   -796.66597    13316.528 
     980 3.6021679e-08   -796.66597            0   -796.66597    13316.529 
     981 3.8422642e-08   -796.66597            0   -796.66597    13316.531 
     982 4.0849887e-08   -796.66597            0   -796.66597    13316.533 
     983 4.3338129e-08   -796.66597            0   -796.66597    13316.535 
     984 4.5336216e-08   -796.66597            0   -796.66597    13316.537 
     985 4.4633392e-08   -796.66597            0   -796.66597    13316.538 
     986 2.414254e-08   -796.66597            0   -796.66597    13316.541 
     987 3.0819133e-09   -796.66597            0   -796.66597    13316.541 
     988 2.8806432e-09   -796.66597            0   -796.66597    13316.541 
     989 3.3103574e-09   -796.66597            0   -796.66597    13316.541 
     990 4.0304088e-09   -796.66597            0   -796.66597    13316.542 
     991 4.8286386e-09   -796.66597            0   -796.66597    13316.542 
     992 5.6962678e-09   -796.66597            0   -796.66597    13316.543 
     993 6.6323106e-09   -796.66598            0   -796.66598    13316.544 
     994 7.6357424e-09   -796.66598            0   -796.66598    13316.544 
     995 8.705449e-09   -796.66598            0   -796.66598    13316.545 
     996 9.8402412e-09   -796.66598            0   -796.66598    13316.546 
     997 1.103885e-08   -796.66598            0   -796.66598    13316.547 
     998 1.2299931e-08   -796.66598            0   -796.66598    13316.548 
     999 1.3622065e-08   -796.66598            0   -796.66598    13316.549 
    1000 1.5003759e-08   -796.66598            0   -796.66598     13316.55 
    1001 1.6443448e-08   -796.66598            0   -796.66598    13316.552 
    1002  1.79395e-08   -796.66598            0   -796.66598    13316.553 
    1003 1.949021e-08   -796.66598            0   -796.66598    13316.554 
    1004 2.1093814e-08   -796.66598            0   -796.66598    13316.556 
    1005 2.2748471e-08   -796.66598            0   -796.66598    13316.557 
    1006 2.4452306e-08   -796.66598            0   -796.66598    13316.559 
    1007 2.6203324e-08   -796.66598            0   -796.66598     13316.56 
    1008 2.799961e-08   -796.66598            0   -796.66598    13316.562 
    1009 2.9838861e-08   -796.66598            0   -796.66598    13316.563 
    1010 3.1719583e-08   -796.66598            0   -796.66598    13316.565 
    1011 3.3637876e-08   -796.66598            0   -796.66598    13316.567 
    1012 3.5596569e-08   -796.66598            0   -796.66598    13316.569 
    1013 3.7577732e-08   -796.66598            0   -796.66598    13316.571 
    1014 3.9629148e-08   -796.66598            0   -796.66598    13316.573 
    1015 4.1576367e-08   -796.66598            0   -796.66598    13316.575 
    1016 4.376814e-08   -796.66598            0   -796.66598    13316.576 
    1017 2.9805853e-08   -796.66598            0   -796.66598    13316.579 
    1018 9.1353915e-10   -796.66598            0   -796.66598    13316.579 
    1019 1.1821038e-09   -796.66598            0   -796.66598    13316.579 
    1020 1.3011563e-09   -796.66598            0   -796.66598    13316.579 
[...]
    1984 1.080458e-05   -796.69945            0   -796.69945    13541.687 
    1985 8.434576e-06   -796.69945            0   -796.69945    13541.712 
    1986 1.0193138e-05   -796.69946            0   -796.69946    13541.742 
    1987 1.2144608e-05   -796.69947            0   -796.69947    13541.775 
    1988 1.4253312e-05   -796.69947            0   -796.69947     13541.81 
    1989 1.6515646e-05   -796.69948            0   -796.69948    13541.849 
    1990 1.8926391e-05   -796.69949            0   -796.69949    13541.891 
    1991 2.1480712e-05    -796.6995            0   -796.69949    13541.936 
    1992 2.4172968e-05    -796.6995            0    -796.6995    13541.983 
    1993 2.699756e-05   -796.69951            0   -796.69951    13542.034 
    1994 2.9948171e-05   -796.69952            0   -796.69952    13542.087 
    1995 3.3018608e-05   -796.69953            0   -796.69953    13542.143 
    1996 3.6201744e-05   -796.69954            0   -796.69954    13542.202 
    1997 3.949107e-05   -796.69956            0   -796.69955    13542.264 
    1998 4.2878163e-05   -796.69957            0   -796.69957    13542.328 
    1999 4.6357139e-05   -796.69958            0   -796.69958    13542.395 
    2000 4.9915224e-05   -796.69959            0   -796.69959    13542.465 
    2001 5.3549207e-05   -796.69961            0    -796.6996    13542.536 
    2002 5.7200878e-05   -796.69962            0   -796.69962    13542.613 
    2003 6.0723381e-05   -796.69963            0   -796.69963    13542.685 
    2004 6.2368311e-05   -796.69965            0   -796.69965    13542.776 
    2005 5.1461242e-05   -796.69966            0   -796.69966    13542.812 
    2006 1.251957e-05   -796.69967            0   -796.69967    13542.875 
    2007 4.2337479e-06   -796.69967            0   -796.69967    13542.883 
    2008 5.0671534e-06   -796.69967            0   -796.69967    13542.902 
    2009 6.1745687e-06   -796.69968            0   -796.69968    13542.925 
    2010 7.3903423e-06   -796.69968            0   -796.69968    13542.951 
    2011 8.7067993e-06   -796.69969            0   -796.69969    13542.978 
    2012 1.0121244e-05   -796.69969            0   -796.69969    13543.008 
    2013 1.1630511e-05    -796.6997            0    -796.6997    13543.041 
    2014 1.3231286e-05   -796.69971            0   -796.69971    13543.076 
    2015 1.4919972e-05   -796.69971            0   -796.69971    13543.113 
    2016 1.6692784e-05   -796.69972            0   -796.69972    13543.152 
    2017 1.8545676e-05   -796.69973            0   -796.69973    13543.193 
    2018 2.0474424e-05   -796.69974            0   -796.69974    13543.237 
    2019 2.2474537e-05   -796.69974            0   -796.69974    13543.283 
    2020 2.4541397e-05   -796.69975            0   -796.69975    13543.331 
    2021 2.6670051e-05   -796.69976            0   -796.69976    13543.382 
    2022 2.8855587e-05   -796.69977            0   -796.69977    13543.434 
    2023 3.1092424e-05   -796.69978            0   -796.69978    13543.489 
    2024 3.3375793e-05   -796.69979            0   -796.69979    13543.545 
    2025 3.5698172e-05    -796.6998            0    -796.6998    13543.604 
    2026 3.8056669e-05   -796.69982            0   -796.69981    13543.664 
    2027 4.0421631e-05   -796.69983            0   -796.69983    13543.727 
    2028 4.271644e-05   -796.69984            0   -796.69984    13543.788 
    2029 4.3774316e-05   -796.69985            0   -796.69985    13543.864 
    2030 3.485311e-05   -796.69986            0   -796.69986    13543.889 
    2031 5.4226326e-06   -796.69986            0   -796.69986    13543.932 
    2032 3.0331953e-06   -796.69987            0   -796.69987    13543.944 
    2033 3.6329799e-06   -796.69987            0   -796.69987    13543.961 
    2034 4.3511657e-06   -796.69987            0   -796.69987     13543.98 
    2035 5.1286991e-06   -796.69988            0   -796.69988    13544.002 
    2036 5.9640712e-06   -796.69988            0   -796.69988    13544.024 
    2037 6.8551973e-06   -796.69989            0   -796.69989    13544.049 
    2038 7.8000599e-06   -796.69989            0   -796.69989    13544.075 
    2039 8.7963809e-06    -796.6999            0    -796.6999    13544.104 
    2040 9.8418269e-06    -796.6999            0    -796.6999    13544.133 
    2041 1.0933845e-05   -796.69991            0   -796.69991    13544.165 
    2042 1.2069834e-05   -796.69991            0   -796.69991    13544.198 
    2043 1.324695e-05   -796.69992            0   -796.69992    13544.233 
    2044 1.446238e-05   -796.69993            0   -796.69993     13544.27 
    2045 1.5712922e-05   -796.69994            0   -796.69994    13544.308 
    2046 1.6995716e-05   -796.69994            0   -796.69994    13544.348 
    2047 1.8306826e-05   -796.69995            0   -796.69995    13544.389 
    2048 1.9643997e-05   -796.69996            0   -796.69996    13544.432 
    2049 2.0999094e-05   -796.69997            0   -796.69997    13544.477 
    2050  2.23669e-05   -796.69998            0   -796.69998    13544.522 
    2051 2.364255e-05   -796.69998            0   -796.69998    13544.572 
    2052 2.4202067e-05   -796.69999            0   -796.69999    13544.611 
    2053 1.8819597e-05       -796.7            0       -796.7    13544.673 
    2054 3.4191533e-06       -796.7            0       -796.7    13544.668 
    2055 1.8338591e-06   -796.70001            0   -796.70001    13544.684 
    2056 2.1906503e-06   -796.70001            0   -796.70001    13544.698 
    2057 2.6237455e-06   -796.70001            0   -796.70001    13544.712 
    2058 3.0929637e-06   -796.70001            0   -796.70001    13544.729 
    2059 3.5967943e-06   -796.70002            0   -796.70002    13544.746 
    2060 4.1340779e-06   -796.70002            0   -796.70002    13544.765 
    2061 4.7034515e-06   -796.70003            0   -796.70003    13544.785 
    2062 5.3035223e-06   -796.70003            0   -796.70003    13544.807 
    2063 5.932762e-06   -796.70003            0   -796.70003     13544.83 
    2064 6.5895956e-06   -796.70004            0   -796.70004    13544.854 
    2065 7.2723171e-06   -796.70004            0   -796.70004     13544.88 
    2066 7.9791936e-06   -796.70005            0   -796.70005    13544.907 
    2067 8.708329e-06   -796.70005            0   -796.70005    13544.935 
    2068 9.4578775e-06   -796.70006            0   -796.70006    13544.964 
    2069 1.0225682e-05   -796.70007            0   -796.70006    13544.995 
    2070 1.1009946e-05   -796.70007            0   -796.70007    13545.026 
    2071 1.1807754e-05   -796.70008            0   -796.70008     13545.06 
    2072 1.2617765e-05   -796.70008            0   -796.70008    13545.093 
    2073 1.3429069e-05   -796.70009            0   -796.70009    13545.129 
    2074 1.421276e-05    -796.7001            0    -796.7001    13545.164 
    2075 1.4608807e-05    -796.7001            0    -796.7001    13545.206 
    2076 1.2123777e-05   -796.70011            0   -796.70011    13545.224 
    2077 2.6769593e-06   -796.70011            0   -796.70011    13545.253 
    2078 8.0529848e-07   -796.70011            0   -796.70011    13545.256 
    2079 9.9617315e-07   -796.70012            0   -796.70012    13545.264 
    2080 1.2205795e-06   -796.70012            0   -796.70012    13545.274 
    2081 1.4683956e-06   -796.70012            0   -796.70012    13545.285 
    2082 1.7371536e-06   -796.70012            0   -796.70012    13545.297 
    2083 2.026166e-06   -796.70012            0   -796.70012     13545.31 
    2084 2.3346877e-06   -796.70013            0   -796.70013    13545.324 
    2085 2.6619152e-06   -796.70013            0   -796.70013    13545.339 
    2086 3.0069884e-06   -796.70013            0   -796.70013    13545.355 
    2087 3.3689909e-06   -796.70014            0   -796.70014    13545.372 
    2088 3.7469523e-06   -796.70014            0   -796.70014     13545.39 
    2089 4.139849e-06   -796.70014            0   -796.70014    13545.409 
    2090 4.5466054e-06   -796.70015            0   -796.70015    13545.429 
    2091 4.9660956e-06   -796.70015            0   -796.70015     13545.45 
    2092 5.3971451e-06   -796.70016            0   -796.70016    13545.472 
    2093 5.838531e-06   -796.70016            0   -796.70016    13545.495 
    2094 6.2889856e-06   -796.70016            0   -796.70016    13545.519 
    2095 6.7471937e-06   -796.70017            0   -796.70017    13545.543 
    2096 7.2118025e-06   -796.70017            0   -796.70017    13545.569 
    2097 7.6814029e-06   -796.70018            0   -796.70018    13545.595 
    2098 8.1545798e-06   -796.70018            0   -796.70018    13545.622 
    2099 8.6297712e-06   -796.70019            0   -796.70019     13545.65 
    2100 9.1056266e-06    -796.7002            0    -796.7002    13545.679 
    2101 9.5791531e-06    -796.7002            0    -796.7002    13545.708 
    2102 1.0042872e-05   -796.70021            0   -796.70021    13545.738 
    2103 1.0366745e-05   -796.70021            0   -796.70021    13545.771 
    2104 8.9946988e-06   -796.70022            0   -796.70022    13545.789 
    2105 1.3815322e-06   -796.70022            0   -796.70022     13545.81 
    2106 1.8266831e-07   -796.70022            0   -796.70022    13545.811 
    2107 2.6569877e-07   -796.70022            0   -796.70022    13545.814 
    2108 3.5092613e-07   -796.70022            0   -796.70022    13545.819 
    2109 4.4429884e-07   -796.70022            0   -796.70022    13545.825 
    2110 5.4810665e-07   -796.70022            0   -796.70022    13545.831 
    2111 6.6206975e-07   -796.70023            0   -796.70023    13545.838 
    2112 7.8584198e-07   -796.70023            0   -796.70023    13545.846 
    2113 9.1907984e-07   -796.70023            0   -796.70023    13545.855 
    2114 1.0614119e-06   -796.70023            0   -796.70023    13545.864 
    2115 1.2124367e-06   -796.70023            0   -796.70023    13545.874 
    2116 1.3717241e-06   -796.70024            0   -796.70024    13545.885 
    2117 1.5388153e-06   -796.70024            0   -796.70024    13545.896 
    2118 1.7132239e-06   -796.70024            0   -796.70024    13545.908 
    2119 1.8944366e-06   -796.70024            0   -796.70024    13545.921 
    2120 2.0819137e-06   -796.70024            0   -796.70024    13545.934 
    2121 2.2750897e-06   -796.70025            0   -796.70025    13545.948 
    2122 2.4733743e-06   -796.70025            0   -796.70025    13545.963 
    2123 2.676153e-06   -796.70025            0   -796.70025    13545.978 
    2124 2.8827879e-06   -796.70026            0   -796.70026    13545.994 
    2125 3.0926173e-06   -796.70026            0   -796.70026     13546.01 
    2126 3.3049598e-06   -796.70026            0   -796.70026    13546.027 
    2127 3.5191059e-06   -796.70027            0   -796.70027    13546.044 
    2128 3.7343412e-06   -796.70027            0   -796.70027    13546.062 
    2129 3.9498817e-06   -796.70027            0   -796.70027    13546.081 
    2130 4.1650395e-06   -796.70028            0   -796.70028      13546.1 
    2131 4.3784241e-06   -796.70028            0   -796.70028    13546.119 
    2132  4.58712e-06   -796.70028            0   -796.70028    13546.139 
    2133 4.7416467e-06   -796.70029            0   -796.70029    13546.161 
    2134 4.2560118e-06   -796.70029            0   -796.70029    13546.173 
    2135 8.7179383e-07   -796.70029            0   -796.70029     13546.19 
    2136 3.7068032e-08   -796.70029            0   -796.70029     13546.19 
    2137 6.099575e-08   -796.70029            0   -796.70029     13546.19 
    2138 9.1972505e-08   -796.70029            0   -796.70029    13546.192 
    2139 1.2657716e-07    -796.7003            0    -796.7003    13546.194 
    2140 1.6475965e-07    -796.7003            0    -796.7003    13546.198 
    2141 2.0752299e-07    -796.7003            0    -796.7003    13546.201 
    2142 2.5492994e-07    -796.7003            0    -796.7003    13546.206 
    2143 3.0682082e-07    -796.7003            0    -796.7003    13546.211 
    2144 3.6303443e-07    -796.7003            0    -796.7003    13546.216 
    2145 4.2340037e-07    -796.7003            0    -796.7003    13546.222 
    2146 4.8773383e-07    -796.7003            0    -796.7003    13546.228 
    2147 5.5583551e-07    -796.7003            0    -796.7003    13546.234 
    2148 6.2749202e-07    -796.7003            0    -796.7003    13546.241 
    2149 7.0247613e-07   -796.70031            0   -796.70031    13546.249 
    2150 7.8054715e-07   -796.70031            0   -796.70031    13546.257 
    2151 8.6145124e-07   -796.70031            0   -796.70031    13546.265 
    2152 9.4492173e-07   -796.70031            0   -796.70031    13546.274 
    2153 1.0306795e-06   -796.70031            0   -796.70031    13546.283 
    2154 1.1184334e-06   -796.70031            0   -796.70031    13546.293 
    2155 1.2078802e-06   -796.70032            0   -796.70032    13546.303 
    2156 1.2987057e-06   -796.70032            0   -796.70032    13546.313 
    2157 1.3905839e-06   -796.70032            0   -796.70032    13546.324 
    2158 1.4831786e-06   -796.70032            0   -796.70032    13546.335 
    2159 1.576142e-06   -796.70033            0   -796.70032    13546.346 
    2160 1.6691182e-06   -796.70033            0   -796.70033    13546.358 
    2161 1.7617335e-06   -796.70033            0   -796.70033     13546.37 
    2162 1.8536252e-06   -796.70033            0   -796.70033    13546.382 
    2163 1.944331e-06   -796.70033            0   -796.70033    13546.395 
    2164 2.033427e-06   -796.70034            0   -796.70034    13546.408 
    2165 2.1166971e-06   -796.70034            0   -796.70034    13546.422 
    2166   2.1487e-06   -796.70034            0   -796.70034    13546.433 
    2167 1.517043e-06   -796.70034            0   -796.70034     13546.45 
    2168 5.1275344e-08   -796.70034            0   -796.70034    13546.449 
    2169 7.5843868e-08   -796.70035            0   -796.70035    13546.449 
    2170 9.2073792e-08   -796.70035            0   -796.70035    13546.451 
    2171 1.1176479e-07   -796.70035            0   -796.70035    13546.454 
    2172 1.3383326e-07   -796.70035            0   -796.70035    13546.457 
    2173 1.5765489e-07   -796.70035            0   -796.70035     13546.46 
    2174 1.8314943e-07   -796.70035            0   -796.70035    13546.464 
    2175 2.102296e-07   -796.70035            0   -796.70035    13546.468 
    2176 2.3880154e-07   -796.70035            0   -796.70035    13546.472 
    2177 2.6876489e-07   -796.70035            0   -796.70035    13546.476 
    2178 3.0001299e-07   -796.70035            0   -796.70035    13546.481 
    2179 3.3243303e-07   -796.70035            0   -796.70035    13546.486 
    2180 3.6590618e-07   -796.70035            0   -796.70035    13546.492 
    2181 4.0030778e-07   -796.70035            0   -796.70035    13546.497 
    2182 4.3550751e-07   -796.70036            0   -796.70036    13546.503 
    2183 4.713695e-07   -796.70036            0   -796.70036    13546.509 
    2184 5.0775259e-07   -796.70036            0   -796.70036    13546.515 
    2185 5.4451032e-07   -796.70036            0   -796.70036    13546.522 
    2186 5.8149132e-07   -796.70036            0   -796.70036    13546.528 
    2187 6.1853896e-07   -796.70036            0   -796.70036    13546.535 
    2188 6.5549239e-07   -796.70036            0   -796.70036    13546.542 
    2189 6.9218348e-07   -796.70037            0   -796.70037     13546.55 
    2190 7.2843763e-07   -796.70037            0   -796.70037    13546.557 
    2191 7.6399324e-07   -796.70037            0   -796.70037    13546.565 
    2192 7.9785354e-07   -796.70037            0   -796.70037    13546.572 
    2193 8.1896097e-07   -796.70037            0   -796.70037     13546.58 
    2194 6.9739809e-07   -796.70037            0   -796.70037    13546.587 
    2195 1.0510911e-07   -796.70037            0   -796.70037     13546.59 
    2196 1.1271376e-08   -796.70037            0   -796.70037    13546.591 
    2197 1.8096169e-08   -796.70037            0   -796.70037    13546.592 
    2198 2.5128009e-08   -796.70037            0   -796.70037    13546.593 
    2199 3.2307983e-08   -796.70037            0   -796.70037    13546.595 
    2200 4.017841e-08   -796.70037            0   -796.70037    13546.596 
    2201 4.8824077e-08   -796.70038            0   -796.70038    13546.598 
    2202 5.8216988e-08   -796.70038            0   -796.70038      13546.6 
    2203 6.8321787e-08   -796.70038            0   -796.70038    13546.602 
    2204 7.9100044e-08   -796.70038            0   -796.70038    13546.604 
    2205 9.0510199e-08   -796.70038            0   -796.70038    13546.607 
    2206 1.0250763e-07   -796.70038            0   -796.70038    13546.609 
    2207 1.1504474e-07   -796.70038            0   -796.70038    13546.612 
    2208 1.2807102e-07   -796.70038            0   -796.70038    13546.615 
    2209 1.4153314e-07   -796.70038            0   -796.70038    13546.618 
    2210 1.5537503e-07   -796.70038            0   -796.70038    13546.622 
    2211 1.6953797e-07   -796.70038            0   -796.70038    13546.625 
    2212 1.8396069e-07   -796.70038            0   -796.70038    13546.629 
    2213 1.9857942e-07   -796.70038            0   -796.70038    13546.632 
    2214 2.1332803e-07   -796.70038            0   -796.70038    13546.636 
    2215 2.2813808e-07   -796.70038            0   -796.70038     13546.64 
    2216 2.429389e-07   -796.70038            0   -796.70038    13546.644 
    2217 2.5765771e-07   -796.70039            0   -796.70039    13546.649 
    2218 2.7221965e-07   -796.70039            0   -796.70039    13546.653 
    2219 2.865479e-07   -796.70039            0   -796.70039    13546.657 
    2220 3.005636e-07   -796.70039            0   -796.70039    13546.662 
    2221 3.1418572e-07   -796.70039            0   -796.70039    13546.666 
    2222 3.2732397e-07   -796.70039            0   -796.70039    13546.671 
    2223 3.3980513e-07   -796.70039            0   -796.70039    13546.676 
    2224 3.5018211e-07   -796.70039            0   -796.70039    13546.681 
    2225 3.372874e-07   -796.70039            0   -796.70039    13546.686 
    2226 1.293203e-07   -796.70039            0   -796.70039    13546.688 
    2227 1.5686061e-10   -796.70039            0   -796.70039    13546.688 
Loop time of 427.117 on 24 procs for 727 steps with 127 atoms

98.2% CPU use with 24 MPI tasks x no OpenMP threads

Minimization stats:
  Stopping criterion = energy tolerance
  Energy initial, next-to-last, final = 
        -796.666006101     -796.700393986     -796.700393986
  Force two-norm initial, final = 2.80486e-06 6.40259e-05
  Force max component initial, final = 2.00977e-06 3.71203e-05
  Final line search alpha, max atom move = 0 0
  Iterations, force evaluations = 727 727

MPI task timing breakdown:
Section |  min time  |  avg time  |  max time  |%varavg| %total
---------------------------------------------------------------
Pair    | 174.86     | 312.03     | 424.28     | 408.0 | 73.06
Neigh   | 0          | 0          | 0          |   0.0 |  0.00
Comm    | 0.049062   | 112.3      | 249.47     | 680.1 | 26.29
Output  | 0.13006    | 0.13049    | 0.13112    |   0.1 |  0.03
Modify  | 1.8066     | 1.8072     | 1.8078     |   0.0 |  0.42
Other   |            | 0.8494     |            |       |  0.20

Nlocal:    5.29167 ave 7 max 3 min
Histogram: 4 0 0 0 0 8 0 9 0 3
Nghost:    757.375 ave 796 max 714 min
Histogram: 8 0 0 0 0 6 2 0 0 8
Neighs:    0 ave 0 max 0 min
Histogram: 24 0 0 0 0 0 0 0 0 0
FullNghs:  1069.42 ave 1404 max 611 min
Histogram: 4 0 0 0 4 4 0 9 0 3

Total # of neighbors = 25666
Ave neighs/atom = 202.094
Neighbor list builds = 0
Dangerous builds = 0
Total wall time: 0:22:05
