# LAMMPS data file written by OVITO Pro 3.6.0
127 atoms
3 atom types
0.0 10.0025 xlo xhi
0.0 12.353714 ylo yhi
0.0 10.615024 zlo zhi

Masses

1 7.01
2 30.974
3 32.066

Atoms  # atomic

22 3 1.512077925 0.3499350089 1.1377395024
16 2 0.9587486273 1.6235374476 1.8650491018
28 3 1.3331031925 1.5949015385 3.349921119
31 3 1.526801605 2.9075083585 1.164998884
7 1 3.5173691225 0.1092450047 1.2247826992
32 3 4.51668889 1.6454529362 1.6676839605
2 1 1.1098073825 0.1043287207 4.5482617934
25 3 1.59131773 0.3609384619 6.4276411776
30 3 1.649792345 2.9003308506 6.4413027134
12 1 3.60057992 0.1171249447 6.3793003583
3 1 1.497754345 3.0568647607 4.5296855014
11 1 1.6005300325 0.0771047176 9.847642685
15 2 1.0898223875 1.6384977952 7.1709263881
17 3 1.58167532 1.6310979206 8.6413513576
5 1 3.63474846 1.6400790706 8.9747055713
23 3 4.53141257 1.6306655406 7.1877936612
8 1 1.0410702025 4.7007487753 2.0444005473
9 1 3.529302105 3.1845033338 1.2184242998
21 3 4.0841507825 4.7589100608 2.2742264319
27 3 2.013563265 4.7644939395 3.7460419696
18 3 4.1164188475 3.6223683728 4.5748630435
6 1 3.6594446325 3.1813037219 6.4143193224
13 2 3.5772040775 4.8072501437 3.7604571722
20 3 4.04893198 6.1435019722 4.4176651531
10 1 1.595578795 3.1896671862 9.8592979813
4 1 1.6325780425 4.7197364337 7.3056735027
29 3 0.7112707733 4.7384893716 9.0151594278
19 3 3.6066514375 3.4835991034 9.7751739161
26 3 3.6399597625 4.756006938 7.5710915628
14 2 4.1436456525 4.7451603771 9.0495945656
24 3 3.63614881 6.0281429909 9.7666288218
54 3 1.53414344 6.5326810243 1.1431000895
48 2 1.0003200175 7.8119698776 1.8673950221
60 3 1.48509118 7.8076584314 3.3417157054
63 3 1.54310568 9.0897639315 1.1454884699
39 1 3.5568389875 6.2532400137 1.126530037
64 3 4.46299547 7.8246818493 1.809436991
34 1 1.04398093 6.2615664169 4.5515524508
57 3 1.583495775 6.5434287555 6.4081519935
62 3 1.5843659925 9.0866507956 6.4107420593
44 1 3.5966289325 6.2946002481 6.3684624188
35 1 3.5163888775 7.8212228094 3.5969433425
43 1 1.60616144 6.2678791648 9.8393735813
47 2 1.065086205 7.814848293 7.1531143778
49 3 1.575813855 7.8145394501 8.6159071451
37 1 3.6251160525 7.8222728751 8.9186794747
55 3 4.5093370525 7.8256948539 7.1468408986
40 1 1.06470611 10.9121591133 2.0335838378
41 1 3.5591995775 9.3971119821 1.1269864831
53 3 4.052472865 10.8926278915 2.2833235075
33 1 1.0598548975 9.3434721559 4.5501194226
59 3 1.99353826 10.8809783392 3.7748192997
50 3 4.0287169275 9.4950645804 4.4175483878
38 1 3.59261793 9.357246547 6.3686322591
45 2 3.55696902 10.8429165464 3.7759020321
52 3 4.1448059425 12.0026955704 4.5868686357
42 1 1.6079318825 9.3620274343 9.8408915297
36 1 1.6205550375 10.9054139855 7.3100150476
61 3 0.7066816263 10.8877852356 9.0215921323
51 3 3.63562868 9.6179222661 9.7597715163
58 3 3.6206149275 10.8996571548 7.5684378068
46 2 4.13895448 10.9032273781 9.041346692
56 3 3.6122728425 12.161107245 9.779547306
86 3 6.60697133 0.353574413 1.1236639805
80 2 6.0460811425 1.6443658094 1.825338297
92 3 6.5337630325 1.644687006 3.3031088632
95 3 6.60949196 2.9324752145 1.1214666706
71 1 8.5573488025 0.055984314 1.100003092
96 3 9.406210965 1.6365459084 1.7328283628
66 1 6.0257160525 0.1426520417 4.5247813603
89 3 6.6082016375 0.3829848999 6.4048719511
94 3 6.58068476 2.9224563524 6.4109862049
76 1 8.607851425 0.1161648141 6.3780690155
67 1 8.623495335 1.654532916 3.6204025455
75 1 6.6102621525 0.0997617997 9.8344375951
79 2 6.08828169 1.645119386 7.163803707
81 3 6.631277405 1.6467130151 8.6159814503
69 1 8.6545731025 1.6463671111 8.9250909492
87 3 9.534322985 1.6622416336 7.1337950341
72 1 6.0737080475 4.7172533372 1.98809846
73 1 8.5596493775 3.2209220827 1.1037608105
85 3 9.0376488475 4.7396135595 2.250841534
65 1 6.0298970975 3.1571769184 4.5156099796
91 3 6.9622101175 4.7600836636 3.7362124574
82 3 9.0210647025 3.4539501898 4.4512829341
70 1 8.6052207675 3.1860228406 6.3590787375
77 2 8.52148984 4.7315465843 3.7356817062
84 3 9.050522065 6.0200760156 4.4453491357
74 1 6.6191243675 3.1898648457 9.8354672525
68 1 6.59800909 4.7284210946 7.3076372822
93 3 5.7049358775 4.7339061437 9.0480129271
83 3 8.64372039 3.4664768558 9.7384990082
90 3 8.6329076875 4.7404536121 7.5423885379
78 2 9.154428035 4.7392182407 9.0144800663
88 3 8.6361284925 6.0124043592 9.7411846093
118 3 6.5559885875 6.5585744089 1.1240142763
112 2 6.01946449 7.8322423223 1.8563341671
124 3 6.53355298 7.8338359514 3.3220248359
127 3 6.543615495 9.1137177829 1.1285362766
103 1 8.5527476525 6.2498798035 1.1134947876
1 3 9.44588088 7.8189003112 1.8134919302
98 1 6.0502821925 6.3100670981 4.530396708
121 3 6.580144625 6.553385849 6.4023243453
126 3 6.5803746825 9.0954095788 6.4007214767
108 1 8.583525345 6.2788122016 6.3699272921
99 1 8.553677885 7.8155153935 3.6355395698
107 1 6.6069013125 6.2771320965 9.8316246138
111 2 6.0660061225 7.8249412773 7.1513841289
113 3 6.592747775 7.8239900413 8.608338633
101 1 8.627976455 7.820419818 8.9085315117
119 3 9.5089266375 7.8168125335 7.1263008272
104 1 6.056133655 10.9425245424 2.0100715597
105 1 8.54869664 9.3902309634 1.1142378392
117 3 9.0507321175 10.896321652 2.2547266328
97 1 6.03690885 9.3564188482 4.5343561119
123 3 6.98378551 10.9049692518 3.7531221906
114 3 9.058724115 9.6084222601 4.4469944644
102 1 8.5848956875 9.3565794465 6.3719972217
109 2 8.53989444 10.8994347879 3.7391103589
116 3 9.0764785525 12.1682229843 4.459658188
106 1 6.59812912 9.3756412272 9.8300960503
100 1 6.60052972 10.9243028142 7.2961093661
125 3 5.7005147725 10.9129744585 9.0281203721
115 3 8.6251257425 9.6279287745 9.7411739943
122 3 8.63719876 10.8998053993 7.5394163312
110 2 9.1504170325 10.8980388182 9.0150002024
120 3 8.6394893325 12.1737945093 9.7331384211
