# LAMMPS data file written by OVITO Pro 3.6.0
127 atoms
3 atom types
0.0 10.0025 xlo xhi
0.0 12.353714 ylo yhi
0.0 10.615024 zlo zhi

Masses

1 7.01
2 30.974
3 32.066

Atoms  # atomic

22 3 1.503355745 0.3436926772 1.1235047552
16 2 0.963136724 1.6155816558 1.8634356181
28 3 1.3605700575 1.5711453465 3.3420023111
31 3 1.5290721725 2.901739174 1.1654022549
7 1 3.5108775 0.1118420025 1.2214920417
32 3 4.507546605 1.6502955921 1.6658900215
2 1 1.08663159 0.0934767242 4.5483573286
25 3 1.59115769 0.3517028254 6.4208369472
30 3 1.691962885 2.884592219 6.4304329289
12 1 3.599399625 0.1111950385 6.3860833586
3 1 1.920019885 2.9238399684 4.5124148573
11 1 1.5997298325 0.0745425574 9.8389595954
15 2 1.1022254875 1.6371388867 7.1601839838
17 3 1.5853262325 1.6276018195 8.6344728221
5 1 3.63022733 1.6389919438 8.9786331302
23 3 4.5300622325 1.6225862116 7.1985572956
8 1 1.0198549 4.677869697 2.065046769
9 1 3.530942515 3.1921873439 1.2064611677
21 3 4.09482345 4.7645310007 2.2713709904
27 3 2.01806439 4.7620602579 3.7359364668
18 3 4.07137759 3.5942883809 4.5615624184
6 1 3.7011950675 3.1982406637 6.453913362
13 2 3.5776942 4.8131675727 3.7513813267
20 3 4.0594446075 6.1331495599 4.4259342568
10 1 1.5917878475 3.1861957926 9.8566548404
4 1 1.629907375 4.7105946853 7.2888168446
29 3 0.7125230863 4.7352897596 9.0059986621
19 3 3.6040307825 3.4873793399 9.7722972446
26 3 3.6442808425 4.7704113685 7.5752526522
14 2 4.1443258225 4.7522267015 9.0552842185
24 3 3.63622883 6.0325779742 9.7743990194
54 3 1.52578135 6.5289625564 1.1440766717
48 2 0.9960269445 7.8081772874 1.8706750645
60 3 1.4817403425 7.8002338493 3.3451337432
63 3 1.539724835 9.0864654898 1.1488534325
39 1 3.5484368875 6.2600716175 1.1300966851
64 3 4.4583243025 7.8290427104 1.8151160289
34 1 1.028757125 6.2367848666 4.5524334978
57 3 1.580214955 6.5429840218 6.4046384205
62 3 1.58243551 9.0857736819 6.409266571
44 1 3.591477645 6.3028525291 6.3728570387
35 1 3.5143283625 7.8244718362 3.606029803
43 1 1.6017703425 6.2656554962 9.8394585015
47 2 1.063165725 7.8138723496 7.1515433543
49 3 1.57579385 7.8133411399 8.6138902905
37 1 3.6235956725 7.825040107 8.9218215218
55 3 4.50768664 7.8295245052 7.148348232
40 1 1.058084455 10.9107754974 2.0309194668
41 1 3.55364819 9.4007316203 1.1314766382
53 3 4.044710925 10.8992494822 2.2850643714
33 1 1.0530531975 9.3395313211 4.5490260751
59 3 1.98441598 10.8776428364 3.7742567034
50 3 4.02644636 9.5058123116 4.4218899327
38 1 3.589197075 9.3595196304 6.3702351278
45 2 3.54780673 10.8504152508 3.77716522
52 3 4.12879194 12.0169764638 4.5843953351
42 1 1.605021155 9.3602608532 9.8431631449
36 1 1.61780435 10.9017696399 7.3088261649
61 3 0.7049731993 10.8854874448 9.0204881698
51 3 3.6347584625 9.6193676507 9.7633806245
58 3 3.6181943225 10.8973717177 7.5706988069
46 2 4.1381042675 10.9035238673 9.0430132508
56 3 3.6122728425 12.1622932016 9.779536691
86 3 6.5990393475 0.3565862485 1.1224114077
80 2 6.0373389575 1.6472442248 1.8237566584
92 3 6.521890065 1.6467500762 3.3015059945
95 3 6.60349046 2.9337847081 1.1192375155
71 1 8.552717645 0.0607454354 1.1034317448
96 3 9.4101619525 1.6356440873 1.7472647955
66 1 6.015563515 0.1484138139 4.5229980363
89 3 6.6084016875 0.3886070752 6.4020589697
94 3 6.561619995 2.9307580482 6.4147757685
76 1 8.6105220925 0.1231634402 6.3778885601
67 1 8.6241054875 1.6640823369 3.6304974334
75 1 6.61029216 0.1017981859 9.8345119003
79 2 6.08676131 1.6462929888 7.1660647071
81 3 6.6373289175 1.6483313516 8.6148137976
69 1 8.663345295 1.6488131464 8.9181805685
87 3 9.5471361875 1.6753859853 7.1218849772
72 1 6.073457985 4.7283346186 1.9722820742
73 1 8.5562485275 3.2159188285 1.1091957028
85 3 9.0190241925 4.7371798779 2.25347406
65 1 6.03478832 3.1657380422 4.5086783689
91 3 6.9270013175 4.7891148915 3.7190691936
82 3 8.93475313 3.4450184546 4.4518030703
70 1 8.6078614275 3.1904701776 6.3492067652
77 2 8.48764138 4.7310153746 3.7346414338
84 3 9.03325775 6.0137014992 4.4463044879
74 1 6.6241856325 3.1904948851 9.8348940412
68 1 6.6000395975 4.7341038031 7.3136560008
93 3 5.70526596 4.7375875504 9.0551568382
83 3 8.6477313925 3.4652044233 9.7407812384
90 3 8.628416565 4.7386746773 7.5435349605
78 2 9.1555383125 4.7376863801 9.0134291789
88 3 8.639179255 6.0115272455 9.7412695295
118 3 6.5542281475 6.5706934023 1.1216895861
112 2 6.01518342 7.8410628741 1.8573638244
124 3 6.52991207 7.8448925254 3.3226086622
127 3 6.5353234225 9.1237860598 1.1293430184
103 1 8.5511672575 6.250460428 1.1162440788
1 3 9.4412297175 7.81972801 1.8181200807
98 1 6.052612775 6.3275352497 4.531712971
121 3 6.578104115 6.5563507404 6.4055406976
126 3 6.5785942375 9.098510361 6.4028126364
108 1 8.581244775 6.2775150617 6.3704580433
99 1 8.5485366 7.8148112318 3.6374502741
107 1 6.6091618775 6.2820488747 9.8334397829
111 2 6.06443573 7.8282644264 7.1537831243
113 3 6.5908172925 7.8267078584 8.6106951683
101 1 8.6275863575 7.8213463465 8.9094444038
119 3 9.5069061325 7.8173437432 7.126672353
104 1 6.048451735 10.9478489931 2.0110481419
105 1 8.5438454275 9.3917010554 1.1168172901
117 3 9.043040195 10.8986688577 2.2557881352
97 1 6.0339381075 9.3639299063 4.5367232623
123 3 6.9757935125 10.9105531305 3.7545339888
114 3 9.0505120625 9.6108806491 4.4479073565
102 1 8.5828351725 9.3583583813 6.3733028697
109 2 8.53181242 10.9021278976 3.7399595608
116 3 9.069766875 12.1700636877 4.4604861599
106 1 6.5959185675 9.3784949351 9.8315078485
100 1 6.6019000625 10.9272677056 7.296491507
125 3 5.699564535 10.914506319 9.0273242453
115 3 8.6217448975 9.6303130413 9.7414712149
122 3 8.6354683275 10.9041539067 7.539777242
110 2 9.14884664 10.8999042291 9.0155946438
120 3 8.6403095375 12.1767964618 9.7336479423
