# LAMMPS data file written by OVITO Pro 3.6.0
127 atoms
3 atom types
0.0 10.0025 xlo xhi
0.0 12.353714 ylo yhi
0.0 10.615024 zlo zhi

Masses

1 7.01
2 30.974
3 32.066

Atoms  # atomic

22 3 1.4851812025 0.3262430562 1.0822229268
16 2 0.9843440245 1.5977428928 1.8542748524
28 3 1.4726380675 1.5127864016 3.3036289993
31 3 1.5340734225 2.8861364333 1.1494797189
7 1 3.5058262375 0.1212479968 1.1699136401
32 3 4.4553635625 1.6669854597 1.7981744506
2 1 1.009832395 0.1269628249 4.573737851
25 3 1.5908676175 0.3555893038 6.423395168
30 3 1.6997548325 2.8986507455 6.5079544491
12 1 3.58069495 0.1049480124 6.4281188536
3 1 3.21904456 1.8297456417 3.9932446485
11 1 1.5936083025 0.0587023782 9.8242896322
15 2 1.1009451675 1.6461323905 7.1714677543
17 3 1.5599198825 1.5880452273 8.6602354853
5 1 3.5978692425 1.651036815 8.9420643725
23 3 4.512387815 1.6471948099 7.1624237539
8 1 1.012913165 4.6250699233 2.1151815273
9 1 3.533983275 3.2228863232 1.1648502737
21 3 4.0960537575 4.7617637687 2.2577625297
27 3 2.0271366575 4.8300056849 3.707721733
18 3 4.0915326275 3.5361765102 4.4940720959
6 1 3.6203748675 3.2341776178 6.4214738486
13 2 3.561190075 4.7968112553 3.7397578754
20 3 4.0916126475 6.0892444603 4.4487990185
10 1 1.5813252325 3.1734714672 9.8413055157
4 1 1.60892213 4.7032812867 7.2695505761
29 3 0.7040489683 4.7383164196 9.016581841
19 3 3.605961265 3.4811036532 9.7590603097
26 3 3.6490220275 4.7857176202 7.572938577
14 2 4.1431455275 4.7559822306 9.0520572512
24 3 3.63418832 6.0294895457 9.7837083954
54 3 1.5196298125 6.5567089981 1.140658634
48 2 0.9921059645 7.8270661161 1.8778826658
60 3 1.486791605 7.8314022697 3.3506110956
63 3 1.5216503175 9.1111605641 1.1518680993
39 1 3.5296321875 6.267607383 1.153046367
64 3 4.44435081 7.8490310196 1.8409211522
34 1 1.02849706 6.2211697721 4.5519239767
57 3 1.57915469 6.5549794781 6.402642796
62 3 1.57547377 9.0962249239 6.4099777776
44 1 3.58561618 6.3000605897 6.3705748085
35 1 3.52508105 7.8409269832 3.6533091199
43 1 1.5980094025 6.2663967191 9.8446704783
47 2 1.06054507 7.8204692328 7.1522757909
49 3 1.5764240075 7.8206915997 8.6139752107
37 1 3.6203148525 7.8226311328 8.9264921323
55 3 4.503505595 7.8353801656 7.1418199923
40 1 1.031197735 10.9250687445 2.0237861707
41 1 3.53188275 9.4133200549 1.144225282
53 3 4.0134131025 10.9389296116 2.2830050568
33 1 1.0300874575 9.353836922 4.5524653429
59 3 1.9459763725 10.9027085221 3.7779188867
50 3 4.042830455 9.6441862621 4.4669082494
38 1 3.5747634675 9.3658817931 6.3875057718
45 2 3.5032655975 10.933123366 3.7674206279
52 3 4.013463115 12.2084096159 4.4995600633
42 1 1.5937683425 9.3608908926 9.8470588587
36 1 1.60011993 10.9123691265 7.3107368692
61 3 0.6902425175 10.8818307455 9.0226430197
51 3 3.627326605 9.6302636264 9.7710234418
58 3 3.6191145525 10.8986070891 7.5732888728
46 2 4.14031482 10.9064887586 9.0464206735
56 3 3.62590625 12.1772164881 9.7717028033
86 3 6.5369238225 0.3712723437 1.1345974553
80 2 6.00370055 1.65704072 1.8618645946
92 3 6.51866926 1.6524698458 3.3263133056
95 3 6.555378435 2.9299427031 1.1295659339
71 1 8.5321024925 0.0794640299 1.1155328722
96 3 9.426896135 1.6345198993 1.7978135398
66 1 6.01970455 0.1558161593 4.5335706002
89 3 6.5828553025 0.3859448498 6.4050736365
94 3 6.5734329475 2.932623459 6.4219727547
76 1 8.5967986625 0.1317066511 6.3888114198
67 1 8.61999446 1.6809822177 3.6549756787
75 1 6.594508215 0.1062281042 9.839256816
79 2 6.0709873675 1.6556200429 7.1613728665
81 3 6.6044507 1.6457123642 8.6165122015
69 1 8.66344532 1.6486525482 8.9122255401
87 3 9.5397343375 1.6647617912 7.1226492589
72 1 6.0497620625 4.7520043347 1.9693841727
73 1 8.5471062425 3.2084448315 1.1250014736
85 3 9.010472055 4.7353762356 2.2548540131
65 1 6.096983865 3.2133986708 4.5212996324
91 3 6.90668624 4.8313522397 3.6953021549
82 3 8.8527026225 3.4486257391 4.4560596949
70 1 8.6392692775 3.1962146546 6.3539516809
77 2 8.4667061475 4.7440485429 3.7312127811
84 3 9.0253257675 6.0187912294 4.4467290888
74 1 6.6131828825 3.1902354571 9.8373248817
68 1 6.6011998875 4.7349809168 7.3198445598
93 3 5.7044357525 4.7407377475 9.0609207963
83 3 8.63487818 3.4641914187 9.7517571732
90 3 8.62223502 4.7403794898 7.5546170456
78 2 9.14808645 4.7379334544 9.0246704893
88 3 8.6285265925 6.0119225644 9.7513113422
118 3 6.54327541 6.5939677995 1.1277083047
112 2 6.002480245 7.8589263445 1.8691995762
124 3 6.5171988925 7.8666350621 3.3347204046
127 3 6.5163986925 9.1440214434 1.139788202
103 1 8.554998215 6.2586385867 1.1255959149
1 3 9.4350081625 7.8337000605 1.8347750533
98 1 6.050772315 6.336158142 4.5376573844
121 3 6.580824795 6.5614775317 6.4118141768
126 3 6.5763536775 9.103822458 6.409723017
108 1 8.5839354475 6.2771073891 6.3745554425
99 1 8.5422050175 7.8197033026 3.6447215655
107 1 6.6019600775 6.2868668232 9.8411250603
111 2 6.0610848925 7.8315258069 7.1569676315
113 3 6.5790943625 7.8299198241 8.6166608118
101 1 8.6218249175 7.8191103243 8.9136691833
119 3 9.5035652975 7.8239529802 7.13194802
104 1 6.0256160275 10.9495661593 2.0146784801
105 1 8.5338029175 9.3969760912 1.1230270791
117 3 9.012032445 10.9133574236 2.2605012059
97 1 6.037208925 9.3779143105 4.5497266667
123 3 6.94789654 10.9263535307 3.7623784915
114 3 9.0269661775 9.6280893728 4.4538093098
102 1 8.577323795 9.3615332858 6.380977532
109 2 8.5057158975 10.9165570355 3.744895547
116 3 9.03789891 12.186938861 4.4660059724
106 1 6.5907172675 9.375344738 9.8388852902
100 1 6.6028002875 10.9266623736 7.3065227047
125 3 5.6998346025 10.9098366151 9.0312093441
115 3 8.6088216675 9.6295718184 9.7456747644
122 3 8.622615115 10.9101701654 7.5461356414
110 2 9.134663095 10.9010901856 9.02279163
120 3 8.620894685 12.175363431 9.7452607785
