# LAMMPS data file written by OVITO Pro 3.6.0
127 atoms
3 atom types
0.0 10.0025 xlo xhi
0.0 12.353714 ylo yhi
0.0 10.615024 zlo zhi

Masses

1 7.01
2 30.974
3 32.066

Atoms  # atomic

22 3 1.489912385 0.3333167928 1.0971264205
16 2 0.9649541783 1.6007448453 1.8548692938
28 3 1.3839358975 1.5263631333 3.3257825544
31 3 1.53186287 2.8900402069 1.1640010717
7 1 3.5042858525 0.1204810782 1.2127134169
32 3 4.495263535 1.6594496942 1.6831394355
2 1 1.0471717275 0.0735810678 4.548962385
25 3 1.589497275 0.3339184187 6.4111454303
30 3 1.74215543 2.855610406 6.4006365565
12 1 3.5999897725 0.1019259233 6.3994901339
3 1 2.271427715 2.6684145777 4.4929787484
11 1 1.6005700425 0.0715270158 9.8226124584
15 2 1.1184895525 1.6326174274 7.1416289218
17 3 1.5919278825 1.6241798407 8.6204503754
5 1 3.6254761425 1.6428586563 8.9722641158
23 3 4.5275316 1.6261070201 7.1964979809
8 1 1.0161639775 4.6459600537 2.0959046437
9 1 3.53268295 3.2030586122 1.1964724302
21 3 4.1020752625 4.7699913423 2.2698848871
27 3 2.0346385325 4.7386499698 3.7425708568
18 3 4.1000547575 3.5820211429 4.5491428404
6 1 3.73485348 3.2292237785 6.4750372597
13 2 3.5848059775 4.8107956596 3.7507231952
20 3 4.066516375 6.1262438337 4.4348190319
10 1 1.58891713 3.1807230973 9.8519736148
4 1 1.6264065 4.6953872634 7.2627675757
29 3 0.7135693478 4.7305335797 8.9955959386
19 3 3.6022103275 3.4898994976 9.7689428971
26 3 3.643930755 4.7862982447 7.5805495492
14 2 4.1436256475 4.7593424408 9.0606872657
24 3 3.6370190275 6.0362964421 9.7849503532
54 3 1.5193097325 6.5318286181 1.1451594041
48 2 0.9924710558 7.809709148 1.8746132384
60 3 1.4814402675 7.8003203253 3.348615471
63 3 1.5327931025 9.0897762852 1.1519211744
39 1 3.53944464 6.267347955 1.1414547608
64 3 4.4526428825 7.8381844587 1.8250516913
34 1 1.03197793 6.2129545523 4.5511278499
57 3 1.57667407 6.5440217338 6.4026534111
62 3 1.5793447375 9.0862307693 6.4077592376
44 1 3.5855261575 6.3097459015 6.3746297477
35 1 3.51655892 7.8361213885 3.6235764377
43 1 1.5981694425 6.263246522 9.8398406424
47 2 1.061085205 7.8140453016 7.1509595279
49 3 1.5761839475 7.814415913 8.6127014079
37 1 3.6221753175 7.8273008367 8.9266938178
55 3 4.505906195 7.8327611783 7.1492505091
40 1 1.04622149 10.9125791396 2.0253253492
41 1 3.544025785 9.4084897527 1.1401172677
53 3 4.0308774675 10.9149263453 2.2866035499
33 1 1.0420904575 9.3388518669 4.548548399
59 3 1.96725169 10.8757897793 3.771411877
50 3 4.02672643 9.5408474445 4.4337681445
38 1 3.5842058275 9.3619780195 6.3740140763
45 2 3.5303523675 10.8744432245 3.7776641261
52 3 4.09014228 12.0630434633 4.5711584001
42 1 1.6004900225 9.3603596829 9.8459867412
36 1 1.613463265 10.896235176 7.3076903573
61 3 0.700659121 10.8839926454 9.0182802448
51 3 3.632247835 9.6236543894 9.769792099
58 3 3.61710405 10.8939250315 7.5739470043
46 2 4.1383443275 10.9043392124 9.0459536124
56 3 3.615923755 12.1679388489 9.7761929584
86 3 6.58296533 0.3619428189 1.121647126
80 2 6.026926355 1.6526304441 1.8277585225
92 3 6.5198995675 1.6494184784 3.3019412105
95 3 6.5938980625 2.9368360755 1.1192905907
71 1 8.5413348 0.0663309201 1.105299989
96 3 9.411292235 1.6342357639 1.7569032373
66 1 5.9975490125 0.1587736384 4.520683961
89 3 6.6024001875 0.3910111079 6.3995750541
94 3 6.55867926 2.9356254115 6.4196162194
76 1 8.607411315 0.1304712797 6.3790774428
67 1 8.6214448225 1.6691102985 3.6349345134
75 1 6.605951075 0.1041445268 9.835254952
79 2 6.0843507075 1.6486896093 7.165597646
81 3 6.63549846 1.6477877882 8.6137735253
69 1 8.67060711 1.6509626927 8.9093170235
87 3 9.56291013 1.6880608958 7.1047523285
72 1 6.06879682 4.7391441184 1.9648834025
73 1 8.55273765 3.2132257188 1.112794196
85 3 9.0148031375 4.7355244802 2.2544612572
65 1 6.067536505 3.179092407 4.5057061622
91 3 6.9133178975 4.8140076252 3.7055881131
82 3 8.8853107725 3.4432148124 4.4515058496
70 1 8.61271264 3.1960664101 6.3447166101
77 2 8.4732277775 4.7358827379 3.7321150581
84 3 9.030477055 6.0121202238 4.4468989292
74 1 6.6243656775 3.1904948851 9.8349365013
68 1 6.60313037 4.739205887 7.3187936724
93 3 5.70450577 4.7409230532 9.0593073126
83 3 8.6489516975 3.4634254885 9.7408130835
90 3 8.6249256925 4.7389341053 7.5440126366
78 2 9.15652856 4.736092751 9.012165991
88 3 8.6422500225 6.0098965553 9.7424902572
118 3 6.551257405 6.583664802 1.1229103138
112 2 6.00986209 7.8510940899 1.8618752096
124 3 6.5249808375 7.8556773177 3.3269820521
127 3 6.526771285 9.134793219 1.1333236524
103 1 8.553517845 6.2528199874 1.1196621165
1 3 9.43695865 7.8241135785 1.8250729214
98 1 6.05239272 6.33814709 4.5341862716
121 3 6.577824045 6.5593650466 6.4086721297
126 3 6.576903815 9.1014505449 6.4066022
108 1 8.58198496 6.2785651274 6.3709357193
99 1 8.5443455525 7.8168001798 3.6407303165
107 1 6.608991835 6.2856932203 9.8375902573
111 2 6.0628053225 7.8307722303 7.1565748756
113 3 6.587546475 7.8280914744 8.6140282859
101 1 8.6261660025 7.8217540191 8.911323263
119 3 9.50465557 7.8195921191 7.1290395034
104 1 6.034768315 10.9538528981 2.01241748
105 1 8.53761387 9.3948141913 1.1202353278
117 3 9.02813647 10.9046480552 2.2581446705
97 1 6.0296370325 9.3724292615 4.5418290888
123 3 6.9599295475 10.9177676995 3.7569860593
114 3 9.0367886325 9.6169463227 4.4498499059
102 1 8.579364305 9.3602484995 6.3759672407
109 2 8.51576841 10.9071929203 3.7416579647
116 3 9.052842645 12.1749063436 4.4631080708
106 1 6.5931778825 9.3792855728 9.8351169567
100 1 6.6024001875 10.9283671861 7.2988480423
125 3 5.6993944925 10.9136662664 9.0284175928
115 3 8.6167036375 9.6329567361 9.7420338112
122 3 8.63123727 10.9089595014 7.5400638477
110 2 9.144705605 10.9021649587 9.0160829349
120 3 8.6373487975 12.1801072572 9.733552407
