# LAMMPS data file written by OVITO Pro 3.6.0
127 atoms
3 atom types
0.0 10.0025 xlo xhi
0.0 12.353714 ylo yhi
0.0 10.615024 zlo zhi

Masses

1 7.01
2 30.974
3 32.066

Atoms  # atomic

22 3 1.4841009325 0.3275908464 1.0836878002
16 2 0.9705845855 1.5950744905 1.8511964955
28 3 1.415653825 1.5044476446 3.313193136
31 3 1.533203205 2.884073363 1.1585131043
7 1 3.5031855775 0.1269652956 1.1895938946
32 3 4.4755186 1.6660589312 1.7318093205
2 1 0.9959259192 0.0845168225 4.5616261086
25 3 1.59575884 0.3395529476 6.4069100357
30 3 1.7488270975 2.8633314772 6.4426083614
12 1 3.5961888225 0.087911376 6.4332352952
3 1 2.8950935925 2.0394746443 4.3032139643
11 1 1.5969691425 0.0637940849 9.8201922329
15 2 1.119619835 1.6387819307 7.1472442695
17 3 1.5778643675 1.600151867 8.6351627986
5 1 3.610882495 1.6488625613 8.9559488239
23 3 4.5166788875 1.6409808918 7.1706822425
8 1 1.013313265 4.6277383255 2.1152664475
9 1 3.533423135 3.2153134965 1.1820996877
21 3 4.1032755625 4.7650251492 2.2656707226
27 3 2.031607775 4.8167254423 3.7133689257
18 3 4.0970340025 3.5620328336 4.5212677873
6 1 3.6800097725 3.2564019493 6.461439414
13 2 3.567591675 4.8096591179 3.7450123123
20 3 4.08746161 6.1082938873 4.445911732
10 1 1.5844660175 3.174299166 9.8453498398
4 1 1.6164540125 4.6918541012 7.2532565142
29 3 0.7100104583 4.7328807854 9.0014766619
19 3 3.6031305575 3.4868851914 9.7623085071
26 3 3.646251335 4.7967371331 7.5809210751
14 2 4.1438457025 4.7612943276 9.0598911389
24 3 3.6382593375 6.0349869484 9.7909053817
54 3 1.5186095575 6.5505692022 1.1402658781
48 2 0.991795887 7.8226434865 1.8759295014
60 3 1.4844410175 7.8237429671 3.349050687
63 3 1.524120935 9.1060337728 1.1511038176
39 1 3.53204279 6.2681880076 1.1541821745
64 3 4.44691145 7.8479809539 1.8375561896
34 1 1.028317015 6.2194773133 4.5504484883
57 3 1.5775442875 6.5508780451 6.4016237537
62 3 1.5760239075 9.0920987834 6.4077910827
44 1 3.5846059275 6.3075716478 6.3710524846
35 1 3.5231505675 7.8460661283 3.646706575
43 1 1.598339485 6.2645189545 9.8417725767
47 2 1.0606550975 7.8175784638 7.1512673636
49 3 1.5775242825 7.8188138352 8.6125421825
37 1 3.622045285 7.8244841899 8.9289123578
55 3 4.504705895 7.8352566285 7.145673246
40 1 1.0340884575 10.9199419532 2.0218966964
41 1 3.5354536425 9.4154943085 1.1475583996
53 3 4.0179342325 10.9384231093 2.2896819068
33 1 1.0316878575 9.3472770998 4.5497372817
59 3 1.9463764725 10.8912195681 3.7727812151
50 3 4.03616879 9.6199235678 4.460061559
38 1 3.57705404 9.3628674869 6.3830474617
45 2 3.505936265 10.9234009931 3.7749042199
52 3 4.0179942475 12.1751657716 4.5310654545
42 1 1.596819105 9.3603967441 9.8469527084
36 1 1.6053512375 10.9025726313 7.3081892634
61 3 0.6951027323 10.8821766495 9.0186623857
51 3 3.6313376075 9.6266069271 9.7752269913
58 3 3.617964265 10.8899841967 7.5770359763
46 2 4.14055488 10.9035609284 9.0494671854
56 3 3.6221053 12.1728926882 9.7726050803
86 3 6.56011962 0.3669942525 1.1264663469
80 2 6.0139331075 1.6564106805 1.8416111288
92 3 6.51718889 1.6520127584 3.3115690373
95 3 6.577463955 2.9344518087 1.1224750979
71 1 8.5331427525 0.07337229 1.1084844962
96 3 9.415573305 1.6336674931 1.7729956136
66 1 5.9992494375 0.1628219505 4.5222337545
89 3 6.5875164675 0.387475475 6.399978425
94 3 6.566741275 2.9346247607 6.4188837828
76 1 8.599209265 0.1339204366 6.3842257294
67 1 8.6220049625 1.6778814355 3.6435008378
75 1 6.6002796575 0.1059874539 9.8367516704
79 2 6.0756485325 1.653408728 7.1597699979
81 3 6.61585355 1.6462806351 8.6119795862
69 1 8.6719774525 1.6503697144 8.906896798
87 3 9.56002941 1.6786720732 7.1050601642
72 1 6.05747399 4.7467169451 1.9661996655
73 1 8.5493067925 3.2119903474 1.1179743277
85 3 9.0118624025 4.7361051048 2.2543020319
65 1 6.08784158 3.2017614722 4.5087632891
91 3 6.90716636 4.8287826672 3.6967882582
82 3 8.85709372 3.4468220969 4.4530874882
70 1 8.6291667525 3.1970917683 6.3466060843
77 2 8.4669662125 4.7424302063 3.7304060392
84 3 9.0260059375 6.0169752334 4.4464530982
74 1 6.61949446 3.1901613348 9.8354035623
68 1 6.603630495 4.7381311138 7.3197277945
93 3 5.7049358775 4.7412566035 9.0610694066
83 3 8.6430702275 3.4626348508 9.7440188207
90 3 8.62327528 4.7393541315 7.5480145007
78 2 9.153427785 4.7362780567 9.016571226
88 3 8.63663862 6.0098100793 9.7462055156
118 3 6.54611612 6.5927077207 1.1257551403
112 2 6.0047308075 7.8579751085 1.8670978014
124 3 6.5201196225 7.8646584678 3.332236489
127 3 6.5193194225 9.142526644 1.1374422817
103 1 8.555598365 6.2569337741 1.1232499946
1 3 9.43495815 7.8317234663 1.8309005696
98 1 6.0526227775 6.338838898 4.5361075909
121 3 6.579864555 6.5609586757 6.411485111
126 3 6.576623745 9.1032912483 6.4091710358
108 1 8.583405315 6.2782439308 6.3721882922
99 1 8.5421049925 7.8184555775 3.6422058048
107 1 6.6056009875 6.2868791769 9.8407429194
111 2 6.06195511 7.8315258069 7.1574453076
113 3 6.582705265 7.8293391995 8.6162574409
101 1 8.623935445 7.8199997917 8.9128093664
119 3 9.5038453675 7.8225817179 7.1314384988
104 1 6.026446235 10.9542605707 2.0123856349
105 1 8.5340029675 9.3967907855 1.1216046659
117 3 9.0138629025 10.9108990345 2.2602676753
97 1 6.0322376825 9.3765306946 4.5472745961
123 3 6.945595965 10.9230921502 3.7597778107
114 3 9.0258559 9.6243832586 4.4521958262
102 1 8.57738381 9.3603226218 6.3787908371
109 2 8.5022750375 10.9123691265 3.7432289882
116 3 9.0340079375 12.1816638251 4.4660165874
106 1 6.5919175675 9.3766789391 9.8380679333
100 1 6.60413062 10.926341177 7.3036035731
125 3 5.70046476 10.9111214014 9.0302539919
115 3 8.61171239 9.6321537447 9.7427237878
122 3 8.6270462225 10.9107754974 7.5413801107
110 2 9.1393942775 10.9019672993 9.0180360993
120 3 8.629176755 12.178773056 9.7369173696
