# LAMMPS data file written by OVITO Pro 3.6.0
127 atoms
3 atom types
0.0 10.0025 xlo xhi
0.0 12.353714 ylo yhi
0.0 10.615024 zlo zhi

Masses

1 7.01
2 30.974
3 32.066

Atoms  # atomic

22 3 1.48505117 0.3294957891 1.0852375937
16 2 0.9664345483 1.5952103814 1.8505808241
28 3 1.3957188425 1.5046700115 3.3169508544
31 3 1.5328731225 2.8851851973 1.1622708228
7 1 3.5028454925 0.1253074272 1.2025017638
32 3 4.4853910675 1.6636252495 1.7053672957
2 1 1.0133832825 0.0676049586 4.5518284414
25 3 1.5922479625 0.3295032013 6.4043411999
30 3 1.7652412 2.8421572114 6.3944479975
12 1 3.6020302825 0.0898577037 6.4175887498
3 1 2.5818352975 2.3325665089 4.4630762258
11 1 1.59947977 0.0684144975 9.8179100028
15 2 1.1246911025 1.6328027331 7.1356526633
17 3 1.58955729 1.616347586 8.6190385772
5 1 3.6197047 1.6461818054 8.9640268572
23 3 4.52169014 1.6340998731 7.1832079708
8 1 1.01417348 4.6336063397 2.1098209402
9 1 3.533503155 3.2097419715 1.1913559886
21 3 4.1055761375 4.7685830189 2.268059103
27 3 2.035648785 4.7853840699 3.7248543817
18 3 4.102605395 3.5755477967 4.5359377505
6 1 3.7227404525 3.253128215 6.47736195
13 2 3.576553915 4.8138099658 3.7474643828
20 3 4.08073993 6.1192145705 4.4414640369
10 1 1.5869066275 3.1774370094 9.8491924785
4 1 1.62164531 4.6899516292 7.2505602981
29 3 0.7125410907 4.7297058809 8.9946936615
19 3 3.6022503375 3.4888617856 9.7654505542
26 3 3.643210575 4.7947605388 7.5827574742
14 2 4.1433655825 4.761664939 9.0621627541
24 3 3.6379192525 6.0364570404 9.7901729451
54 3 1.5181094325 6.5429222532 1.1416776763
48 2 0.991583834 7.8173437432 1.8751333746
60 3 1.482550545 7.8135758604 3.3485730109
63 3 1.5270916775 9.0994739507 1.1512418129
39 1 3.5345334125 6.2685215579 1.1500104701
64 3 4.4493820675 7.8441389489 1.8320682222
34 1 1.0299674275 6.2158576751 4.5499920423
57 3 1.5765640425 6.5473695903 6.4019846645
62 3 1.577174195 9.0890968309 6.4075681672
44 1 3.584555915 6.3102771112 6.3720715269
35 1 3.5204098825 7.8429035775 3.6372167436
43 1 1.59763931 6.2637159631 9.8403395485
47 2 1.0606150875 7.8157748215 7.1510869082
49 3 1.57699415 7.8169237169 8.6124572623
37 1 3.6220352825 7.8263866619 8.9287425174
55 3 4.5052360275 7.8341324405 7.1481147015
40 1 1.039519815 10.9163346687 2.0225335978
41 1 3.538584425 9.4131347492 1.1454778549
53 3 4.02304551 10.928070697 2.2885885594
33 1 1.03621899 9.3430521296 4.5486863943
59 3 1.9553187075 10.8817442695 3.770966046
50 3 4.0305973975 9.580045779 4.4469944644
38 1 3.5804048775 9.3622868623 6.3781114756
45 2 3.517219085 10.9002377793 3.7774518256
52 3 4.0527629375 12.1175727569 4.5543442021
42 1 1.598219455 9.3607920629 9.846782868
36 1 1.609582295 10.89658108 7.3076266672
61 3 0.6976213618 10.8837455711 9.0176008833
51 3 3.631687695 9.6255692151 9.7737090428
58 3 3.61738412 10.8905154064 7.5762504645
46 2 4.13951462 10.9038697712 9.0483738379
56 3 3.61902453 12.1711878757 9.7734436672
86 3 6.5708923125 0.3646099857 1.1236852106
80 2 6.0195945225 1.6550023572 1.8342761472
92 3 6.5191393775 1.6510985835 3.3059218445
95 3 6.585706015 2.9362554509 1.1205431635
71 1 8.535233275 0.0701160981 1.1067648623
96 3 9.4123525 1.6337539691 1.762975031
66 1 5.992957865 0.162740416 4.5200789047
89 3 6.5945182175 0.3897448522 6.3993096785
94 3 6.5615899875 2.9361072064 6.4194994541
76 1 8.6025801075 0.1333731671 6.3812322926
67 1 8.621934945 1.6742247361 3.638745307
75 1 6.6025202175 0.105392499 9.8363801445
79 2 6.079739555 1.6512468281 7.1621796083
81 3 6.62561599 1.6472565785 8.6122449618
69 1 8.67224752 1.6513209504 8.9066526525
87 3 9.56775134 1.6887156427 7.0991582108
72 1 6.06303538 4.7437891149 1.965106318
73 1 8.5501670075 3.2127068628 1.1156496374
85 3 9.01285265 4.7358456768 2.2544612572
65 1 6.07955951 3.1914955359 4.5052815612
91 3 6.9088967925 4.8238535353 3.7001001457
82 3 8.86625601 3.4451914066 4.4523232065
70 1 8.6196043625 3.1979935895 6.3438780232
77 2 8.4686066225 4.7399100487 3.7310004806
84 3 9.0277463725 6.0147639186 4.4467290888
74 1 6.621715015 3.1902354571 9.8355415576
68 1 6.604390685 4.7398112189 7.3197914847
93 3 5.7042357025 4.7414419092 9.059933599
83 3 8.6466511225 3.4625236673 9.7416729004
90 3 8.6237554 4.7388352755 7.5453501296
78 2 9.1554883 4.7355986025 9.0133654887
88 3 8.640819665 6.0092541622 9.7439339005
118 3 6.5486467525 6.5896316459 1.1242690369
112 2 6.0068513375 7.8556402566 1.8648686464
124 3 6.5225802375 7.8613106113 3.3297950335
127 3 6.522370185 9.1397964732 1.1355846525
103 1 8.554918195 6.255340145 1.1219337316
1 3 9.4352482225 7.8288944658 1.8282786586
98 1 6.0533629625 6.3399507322 4.535258389
121 3 6.57892432 6.5602792214 6.4107845194
126 3 6.5766937625 9.1025376718 6.4084492142
108 1 8.582805165 6.2787874942 6.3713921654
99 1 8.54273515 7.8180973198 3.641377833
107 1 6.607351425 6.2866444563 9.8398300273
111 2 6.06227519 7.8313157937 7.1574877677
113 3 6.5849958375 7.8287462212 8.6156736146
101 1 8.6249456975 7.8210127963 8.9123529204
119 3 9.503995405 7.8213587003 7.1307166772
104 1 6.02854676 10.9549029638 2.0126934706
105 1 8.5350232225 9.3964942964 1.121222525
117 3 9.0194543 10.9086877197 2.259662619
97 1 6.029687045 9.3751223712 4.5448862157
123 3 6.950597215 10.9208314206 3.7585358528
114 3 9.029756875 9.6213195375 4.4513360092
102 1 8.5779539525 9.3604090978 6.3775382643
109 2 8.5065561075 10.9100095671 3.7425814718
116 3 9.0406896075 12.1783900909 4.4652310756
106 1 6.59224765 9.37811197 9.8370913511
100 1 6.6033604275 10.9271688759 7.301385033
125 3 5.6999746375 10.9124679562 9.0295109402
115 3 8.6138829325 9.6333149938 9.7420444262
122 3 8.62891669 10.9108743271 7.5402549181
110 2 9.14176487 10.9027085221 9.0166561462
120 3 8.6332877825 12.1804902223 9.7342848437
