# LAMMPS data file written by OVITO Pro 3.6.0
127 atoms
3 atom types
0.0 10.0025 xlo xhi
0.0 12.353714 ylo yhi
0.0 10.615024 zlo zhi

Masses

1 7.01
2 30.974
3 32.066

Atoms  # atomic

22 3 1.5124480175 0.373671435 1.1677269452
16 2 0.9360799615 1.6504067755 1.8737640365
28 3 1.264295995 1.6504067755 3.3698030589
31 3 1.5124480175 2.92713841 1.1677269452
7 1 3.51427835 0.1183573513 1.233985925
32 3 4.5120177225 1.6504067755 1.6912599288
2 1 1.117099205 0.1370372787 4.5499495822
25 3 1.5787445875 0.3783176668 6.4352521498
30 3 1.5787445875 2.9224934136 6.4352521498
12 1 3.589997275 0.1282957906 6.3755426398
11 1 1.58779685 0.0979386386 9.864467498
15 2 1.0600749525 1.6504067755 7.1765948109
17 3 1.5658613675 1.6504067755 8.6428799211
5 1 3.6236956975 1.6504067755 8.9639100919
23 3 4.51524853 1.6504067755 7.1708308529
8 1 1.0602950075 4.7254314959 2.0420121669
9 1 3.51427835 3.1824526173 1.233985925
21 3 4.0491820425 4.7597748208 2.2846397704
27 3 1.99141773 4.754190942 3.779829591
18 3 4.14911702 3.6486076613 4.5882592038
6 1 3.589997275 3.1725078775 6.3755426398
13 2 3.55476847 4.8051129512 3.7778658116
20 3 4.0189544875 6.1554356599 4.4192574067
3 1 1.117099205 3.1637738017 4.5499495822
10 1 1.58779685 3.2028733065 9.864467498
4 1 1.6102924725 4.7323001608 7.3171589587
29 3 0.694337541 4.7488911987 9.0296064755
19 3 3.6000097775 3.4834261514 9.7829016536
26 3 3.612482895 4.7432331977 7.5704015863
14 2 4.1265813875 4.742529036 9.0449451851
24 3 3.6207149525 6.0280194537 9.7608011736
54 3 1.5349136325 6.5485431931 1.1480679207
48 2 0.9958078898 7.8272637755 1.8698470926
60 3 1.4804600225 7.8272637755 3.3439448605
63 3 1.5349136325 9.1059720043 1.1480679207
39 1 3.55276797 6.2530176468 1.1269864831
64 3 4.4564838425 7.8272637755 1.8076748971
34 1 1.05754432 6.2931301562 4.5574437891
57 3 1.5736033025 6.5555106878 6.4196905246
62 3 1.5736033025 9.0990168633 6.4196905246
44 1 3.5833656175 6.2914747585 6.3727933485
35 1 3.5095071575 7.8272637755 3.5936526851
43 1 1.596419005 6.2778733194 9.8442989524
47 2 1.05362334 7.8272637755 7.1618611576
49 3 1.5611801975 7.8272637755 8.625598662
37 1 3.611882745 7.8272637755 8.9206963292
55 3 4.497384065 7.8272637755 7.1494840396
40 1 1.0602950075 10.9290960552 2.0420121669
41 1 3.55276797 9.4014975506 1.1269864831
53 3 4.0491820425 10.8947403766 2.2846397704
33 1 1.05754432 9.3613973949 4.5574437891
59 3 1.99141773 10.900336609 3.779829591
50 3 4.0189544875 9.4990918912 4.4192574067
38 1 3.5833656175 9.3630527926 6.3727933485
45 2 3.55476847 10.8494145999 3.7778658116
52 3 4.14911702 12.0059198898 4.5882592038
42 1 1.596419005 9.376641878 9.8442989524
36 1 1.6102924725 10.9222273903 7.3171589587
61 3 0.694337541 10.9056363523 9.0296064755
51 3 3.6207149525 9.6265080974 9.7608011736
58 3 3.612482895 10.9112943534 7.5704015863
46 2 4.1265813875 10.9119985151 9.0449451851
56 3 3.6000097775 12.1711013997 9.7829016536
86 3 6.597628995 0.359880984 1.1303196006
80 2 6.0422001725 1.6504067755 1.8366326825
92 3 6.542415195 1.6504067755 3.3110701312
95 3 6.597628995 2.9409251548 1.1303196006
71 1 8.54589594 0.0604260919 1.0981879229
96 3 9.385445775 1.6504067755 1.7079573616
66 1 6.0280566375 0.1439887135 4.5305453183
89 3 6.59028716 0.3818162386 6.4146590032
94 3 6.59028716 2.9189973125 6.4146590032
76 1 8.5879964625 0.1134792402 6.3819965744
67 1 8.618334045 1.6504067755 3.6071231505
75 1 6.5913974375 0.1046196507 9.8406473842
79 2 6.0722876925 1.6504067755 7.1651093549
81 3 6.59936943 1.6504067755 8.6236136525
69 1 8.6253658025 1.6504067755 8.9367993206
87 3 9.503355245 1.6504067755 7.1501740162
72 1 6.0525227525 4.7124353887 2.0124811701
73 1 8.54589594 3.2403791822 1.0981879229
85 3 9.0460909575 4.7499536181 2.2566054921
65 1 6.0280566375 3.1568186607 4.5305453183
91 3 6.979284385 4.7505960113 3.7545552188
82 3 9.0670561975 3.4790529367 4.4623968642
70 1 8.5879964625 3.1873323343 6.3819965744
77 2 8.53557336 4.7495088844 3.7412864388
84 3 9.057043695 6.0392860409 4.449021934
74 1 6.5913974375 3.1961899472 9.8406473842
68 1 6.5846757575 4.7289028895 7.3028074463
93 3 5.688161685 4.7375999041 9.0367397716
83 3 8.6183440475 3.4768539756 9.7360787828
90 3 8.62559586 4.7532767672 7.543312045
78 2 9.13776387 4.7494965307 9.0188428411
88 3 8.6182240175 6.0218055356 9.7453669288
118 3 6.5439455775 6.5485679005 1.1321029246
112 2 6.0127528125 7.8272637755 1.8601025006
124 3 6.5237805375 7.8272637755 3.3270775873
127 3 6.5439455775 9.1059596505 1.1321029246
103 1 8.5453358 6.2578603027 1.1152144214
1 3 9.441579805 7.8272637755 1.814298672
98 1 6.0279966225 6.2998135154 4.5359377505
121 3 6.5686717575 6.5564619238 6.4027383312
126 3 6.5686717575 9.0980656273 6.4027383312
108 1 8.5743930625 6.2918700773 6.373897311
99 1 8.5494668325 7.8272637755 3.6376519595
107 1 6.5895969875 6.2767120703 9.8336202383
111 2 6.054133155 7.8272637755 7.1531674529
113 3 6.581184885 7.8272637755 8.6101538021
101 1 8.61519326 7.8272637755 8.9120981598
119 3 9.4976638225 7.8272637755 7.131979865
104 1 6.0525227525 10.9420921624 2.0124811701
105 1 8.5453358 9.3966672484 1.1152144214
117 3 9.0460909575 10.9045739329 2.2566054921
97 1 6.0279966225 9.3547140356 4.5359377505
123 3 6.979284385 10.9039191861 3.7545552188
114 3 9.057043695 9.6152415102 4.449021934
102 1 8.5743930625 9.3626574737 6.373897311
109 2 8.53557336 10.9050186666 3.7412864388
116 3 9.0670561975 12.1754622607 4.4623968642
106 1 6.5895969875 9.3778154808 9.8336202383
100 1 6.5846757575 10.9256246616 7.3028074463
125 3 5.688161685 10.9169152932 9.0367397716
115 3 8.6182240175 9.6327220155 9.7453669288
122 3 8.62559586 10.9012507839 7.543312045
110 2 9.13776387 10.9050310204 9.0188428411
120 3 8.6183440475 12.1776735755 9.7360787828
