ITEM: TIMESTEP
2565
ITEM: NUMBER OF ATOMS
127
ITEM: BOX BOUNDS pp pp pp
0.0000000000000000e+00 1.0002500000000000e+01
0.0000000000000000e+00 1.2353714000000000e+01
0.0000000000000000e+00 1.0615024000000000e+01
ITEM: ATOMS id type xs ys zs
22 3 0.148481 0.0264085 0.101952
16 2 0.0984098 0.129333 0.174684
28 3 0.147227 0.122456 0.311222
31 3 0.153369 0.233625 0.108288
7 1 0.350495 0.0098147 0.110213
32 3 0.445425 0.134938 0.169399
2 1 0.100958 0.0102773 0.430874
25 3 0.159047 0.028784 0.605123
30 3 0.169933 0.234638 0.613089
12 1 0.35798 0.00849526 0.605568
3 1 0.321824 0.148113 0.376188
11 1 0.159321 0.0047518 0.925508
15 2 0.110067 0.13325 0.675596
17 3 0.155953 0.128548 0.815847
5 1 0.359697 0.133647 0.842397
23 3 0.451126 0.133336 0.674744
8 1 0.101266 0.374387 0.199263
9 1 0.35331 0.260884 0.109736
21 3 0.409503 0.385452 0.212695
27 3 0.202663 0.390976 0.34929
18 3 0.409051 0.286244 0.423369
6 1 0.361947 0.261798 0.604942
13 2 0.35603 0.388289 0.352308
20 3 0.409059 0.492908 0.419104
10 1 0.158093 0.256884 0.927111
4 1 0.160852 0.380718 0.684836
29 3 0.0703873 0.383554 0.849417
19 3 0.360506 0.281786 0.919363
26 3 0.364811 0.387391 0.713417
14 2 0.414211 0.384984 0.852759
24 3 0.363328 0.488071 0.921685
54 3 0.151925 0.530748 0.107457
48 2 0.0991858 0.63358 0.176908
60 3 0.148642 0.633931 0.315648
63 3 0.152127 0.737524 0.108513
39 1 0.352875 0.507346 0.108624
64 3 0.444324 0.635358 0.173426
34 1 0.102824 0.503587 0.428819
57 3 0.157876 0.530608 0.603168
62 3 0.157508 0.736315 0.603859
44 1 0.358472 0.509973 0.600147
35 1 0.35242 0.634702 0.344164
43 1 0.159761 0.507248 0.927428
47 2 0.106028 0.633046 0.673788
49 3 0.157603 0.633064 0.811489
37 1 0.361941 0.633221 0.84093
55 3 0.450238 0.634253 0.672803
40 1 0.103094 0.884355 0.190653
41 1 0.3531 0.761983 0.107793
53 3 0.401241 0.885477 0.215073
33 1 0.102983 0.757168 0.42887
59 3 0.194549 0.882545 0.355903
50 3 0.404182 0.780671 0.42081
38 1 0.357387 0.758143 0.601742
45 2 0.350239 0.885007 0.354914
52 3 0.401246 0.988238 0.423886
42 1 0.159337 0.757739 0.927653
36 1 0.159972 0.883327 0.688716
61 3 0.069007 0.880855 0.849988
51 3 0.362642 0.779544 0.92049
58 3 0.361821 0.882213 0.71345
46 2 0.413928 0.882851 0.852228
56 3 0.3625 0.985713 0.920554
86 3 0.653529 0.0300535 0.106886
80 2 0.60022 0.134133 0.175399
92 3 0.651704 0.133763 0.313359
95 3 0.655374 0.237171 0.106412
71 1 0.852997 0.0064324 0.10509
96 3 0.942454 0.13231 0.169365
66 1 0.60182 0.0126129 0.42709
89 3 0.658121 0.0312412 0.603397
94 3 0.657179 0.237388 0.604989
76 1 0.859465 0.0106613 0.601865
67 1 0.861784 0.136071 0.344321
75 1 0.659286 0.00859888 0.926918
79 2 0.606947 0.134018 0.674645
81 3 0.66028 0.133216 0.811728
69 1 0.866128 0.133454 0.839586
87 3 0.953735 0.134758 0.670997
72 1 0.604825 0.384662 0.185528
73 1 0.854497 0.259715 0.105982
85 3 0.900822 0.383316 0.212421
65 1 0.609546 0.260116 0.425934
91 3 0.690496 0.391085 0.34812
82 3 0.885049 0.279157 0.419788
70 1 0.863711 0.258725 0.598581
77 2 0.846459 0.384018 0.351503
84 3 0.902307 0.487205 0.418909
74 1 0.661153 0.258241 0.926736
68 1 0.659955 0.383284 0.689574
93 3 0.570301 0.38375 0.853594
83 3 0.863272 0.280417 0.918675
90 3 0.862008 0.383721 0.711691
78 2 0.91458 0.383523 0.850179
88 3 0.862637 0.486649 0.918633
118 3 0.654164 0.533764 0.106237
112 2 0.600098 0.636159 0.17609
124 3 0.651557 0.636783 0.314151
127 3 0.651477 0.740184 0.107375
103 1 0.855286 0.50662 0.106038
1 3 0.943265 0.634117 0.172847
98 1 0.604926 0.512895 0.427475
121 3 0.657918 0.531134 0.604032
126 3 0.657471 0.73693 0.603835
108 1 0.858179 0.508115 0.600522
99 1 0.854007 0.632984 0.343355
107 1 0.660031 0.508905 0.927094
111 2 0.605957 0.633941 0.67423
113 3 0.657745 0.633811 0.811742
101 1 0.861967 0.632936 0.839722
119 3 0.950119 0.633328 0.671873
104 1 0.602411 0.886338 0.189795
105 1 0.853167 0.76066 0.105796
117 3 0.900978 0.883407 0.212953
97 1 0.60357 0.759117 0.428612
123 3 0.694616 0.884459 0.354439
114 3 0.902471 0.779368 0.419576
102 1 0.857518 0.757791 0.601127
109 2 0.850359 0.883666 0.352792
116 3 0.903564 0.9865 0.420725
106 1 0.658907 0.758909 0.926883
100 1 0.660115 0.884484 0.688319
125 3 0.569841 0.883122 0.850795
115 3 0.860667 0.779488 0.918102
122 3 0.862046 0.883149 0.710892
110 2 0.913238 0.882414 0.850002
120 3 0.861874 0.985563 0.918063
