ITEM: TIMESTEP
2565
ITEM: NUMBER OF ATOMS
127
ITEM: BOX BOUNDS pp pp pp
0.0000000000000000e+00 1.0002500000000000e+01
0.0000000000000000e+00 1.2353714000000000e+01
0.0000000000000000e+00 1.0615024000000000e+01
ITEM: ATOMS id type xs ys zs
22 3 0.148954 0.0269811 0.103356
16 2 0.0964713 0.129576 0.17474
28 3 0.138359 0.123555 0.313309
31 3 0.153148 0.233941 0.109656
7 1 0.350341 0.00975262 0.114245
32 3 0.449414 0.134328 0.158562
2 1 0.104691 0.00595619 0.42854
25 3 0.15891 0.0270298 0.603969
30 3 0.174172 0.231154 0.602979
12 1 0.359909 0.00825063 0.602871
3 1 0.227086 0.216001 0.423266
11 1 0.160017 0.00578992 0.92535
15 2 0.111821 0.132156 0.672785
17 3 0.159153 0.131473 0.812099
5 1 0.362457 0.132985 0.845242
23 3 0.45264 0.131629 0.677954
8 1 0.101591 0.376078 0.197447
9 1 0.35318 0.259279 0.112715
21 3 0.410105 0.386118 0.213837
27 3 0.203413 0.383581 0.352573
18 3 0.409903 0.289955 0.428557
6 1 0.373392 0.261397 0.609988
13 2 0.358391 0.389421 0.353341
20 3 0.40655 0.495903 0.417787
10 1 0.158852 0.257471 0.928116
4 1 0.1626 0.380079 0.684197
29 3 0.0713391 0.382924 0.84744
19 3 0.360131 0.282498 0.920294
26 3 0.364302 0.387438 0.714134
14 2 0.414259 0.385256 0.853572
24 3 0.363611 0.488622 0.921802
54 3 0.151893 0.528734 0.107881
48 2 0.0992223 0.632175 0.1766
60 3 0.148107 0.631415 0.31546
63 3 0.153241 0.735793 0.108518
39 1 0.353856 0.507325 0.107532
64 3 0.445153 0.63448 0.171931
34 1 0.103172 0.502922 0.428744
57 3 0.157628 0.529721 0.603169
62 3 0.157895 0.735506 0.60365
44 1 0.358463 0.510757 0.600529
35 1 0.351568 0.634313 0.341363
43 1 0.159777 0.506993 0.926973
47 2 0.106082 0.632526 0.673664
49 3 0.157579 0.632556 0.811369
37 1 0.362127 0.633599 0.840949
55 3 0.450478 0.634041 0.673503
40 1 0.104596 0.883344 0.190798
41 1 0.354314 0.761592 0.107406
53 3 0.402987 0.883534 0.215412
33 1 0.104183 0.755955 0.428501
59 3 0.196676 0.880366 0.35529
50 3 0.402572 0.772306 0.417688
38 1 0.358331 0.757827 0.600471
45 2 0.352947 0.880257 0.355879
52 3 0.408912 0.976471 0.430631
42 1 0.160009 0.757696 0.927552
36 1 0.161306 0.882021 0.688429
61 3 0.0700484 0.88103 0.849577
51 3 0.363134 0.779009 0.920374
58 3 0.36162 0.881834 0.713512
46 2 0.413731 0.882677 0.852184
56 3 0.361502 0.984962 0.920977
86 3 0.658132 0.0292983 0.105666
80 2 0.602542 0.133776 0.172186
92 3 0.651827 0.133516 0.311063
95 3 0.659225 0.237729 0.105444
71 1 0.85392 0.00536931 0.104126
96 3 0.940894 0.132287 0.165511
66 1 0.599605 0.0128523 0.425876
89 3 0.660075 0.0316513 0.602879
94 3 0.655704 0.237631 0.604767
76 1 0.860526 0.0105613 0.600948
67 1 0.861929 0.13511 0.342433
75 1 0.66043 0.00843022 0.926541
79 2 0.608283 0.133457 0.675043
81 3 0.663384 0.133384 0.81147
69 1 0.866844 0.133641 0.839312
87 3 0.956052 0.136644 0.669311
72 1 0.606728 0.383621 0.185104
73 1 0.85506 0.260102 0.104832
85 3 0.901255 0.383328 0.212384
65 1 0.606602 0.257339 0.424465
91 3 0.691159 0.389681 0.349089
82 3 0.888309 0.278719 0.419359
70 1 0.861056 0.258713 0.597711
77 2 0.847111 0.383357 0.351588
84 3 0.902822 0.486665 0.418925
74 1 0.662271 0.258262 0.926511
68 1 0.660148 0.383626 0.689475
93 3 0.570308 0.383765 0.853442
83 3 0.864679 0.280355 0.917644
90 3 0.862277 0.383604 0.710692
78 2 0.915424 0.383374 0.849001
88 3 0.864009 0.486485 0.917802
118 3 0.654962 0.53293 0.105785
112 2 0.600836 0.635525 0.1754
124 3 0.652335 0.635896 0.313422
127 3 0.652514 0.739437 0.106766
103 1 0.855138 0.506149 0.105479
1 3 0.94346 0.633341 0.171933
98 1 0.605088 0.513056 0.427148
121 3 0.657618 0.530963 0.603736
126 3 0.657526 0.736738 0.603541
108 1 0.857984 0.508233 0.600181
99 1 0.854221 0.632749 0.342979
107 1 0.660734 0.50881 0.926761
111 2 0.606129 0.63388 0.674193
113 3 0.65859 0.633663 0.811494
101 1 0.862401 0.63315 0.839501
119 3 0.950228 0.632975 0.671599
104 1 0.603326 0.886685 0.189582
105 1 0.853548 0.760485 0.105533
117 3 0.902588 0.882702 0.212731
97 1 0.602813 0.758673 0.427868
123 3 0.695819 0.883764 0.353931
114 3 0.903453 0.778466 0.419203
102 1 0.857722 0.757687 0.600655
109 2 0.851364 0.882908 0.352487
116 3 0.905058 0.985526 0.420452
106 1 0.659153 0.759228 0.926528
100 1 0.660075 0.884622 0.687596
125 3 0.569797 0.883432 0.850532
115 3 0.861455 0.779762 0.917759
122 3 0.862908 0.883051 0.71032
110 2 0.914242 0.882501 0.84937
120 3 0.863519 0.985947 0.91696
