ITEM: TIMESTEP
2565
ITEM: NUMBER OF ATOMS
127
ITEM: BOX BOUNDS pp pp pp
0.0000000000000000e+00 1.0002500000000000e+01
0.0000000000000000e+00 1.2353714000000000e+01
0.0000000000000000e+00 1.0615024000000000e+01
ITEM: ATOMS id type xs ys zs
22 3 0.148373 0.0265176 0.10209
16 2 0.0970342 0.129117 0.174394
28 3 0.14153 0.121781 0.312123
31 3 0.153282 0.233458 0.109139
7 1 0.350231 0.0102775 0.112067
32 3 0.44744 0.134863 0.163147
2 1 0.0995677 0.00684141 0.429733
25 3 0.159536 0.0274859 0.60357
30 3 0.174839 0.231779 0.606933
12 1 0.359529 0.00711619 0.60605
3 1 0.289437 0.16509 0.405389
11 1 0.159657 0.00516396 0.925122
15 2 0.111934 0.132655 0.673314
17 3 0.157747 0.129528 0.813485
5 1 0.360998 0.133471 0.843705
23 3 0.451555 0.132833 0.675522
8 1 0.101306 0.374603 0.199271
9 1 0.353254 0.260271 0.111361
21 3 0.410225 0.385716 0.21344
27 3 0.20311 0.389901 0.349822
18 3 0.409601 0.288337 0.425931
6 1 0.367909 0.263597 0.608707
13 2 0.35667 0.389329 0.352803
20 3 0.408644 0.49445 0.418832
10 1 0.158407 0.256951 0.927492
4 1 0.161605 0.379793 0.683301
29 3 0.0709833 0.383114 0.847994
19 3 0.360223 0.282254 0.919669
26 3 0.364534 0.388283 0.714169
14 2 0.414281 0.385414 0.853497
24 3 0.363735 0.488516 0.922363
54 3 0.151823 0.530251 0.10742
48 2 0.0991548 0.633222 0.176724
60 3 0.148407 0.633311 0.315501
63 3 0.152374 0.737109 0.108441
39 1 0.353116 0.507393 0.108731
64 3 0.44458 0.635273 0.173109
34 1 0.102806 0.50345 0.42868
57 3 0.157715 0.530276 0.603072
62 3 0.157563 0.735981 0.603653
44 1 0.358371 0.510581 0.600192
35 1 0.352227 0.635118 0.343542
43 1 0.159794 0.507096 0.927155
47 2 0.106039 0.632812 0.673693
49 3 0.157713 0.632912 0.811354
37 1 0.362114 0.633371 0.841158
55 3 0.450358 0.634243 0.673166
40 1 0.103383 0.88394 0.190475
41 1 0.353457 0.762159 0.108107
53 3 0.401693 0.885436 0.215702
33 1 0.103143 0.756637 0.428613
59 3 0.194589 0.881615 0.355419
50 3 0.403516 0.778707 0.420165
38 1 0.357616 0.757899 0.601322
45 2 0.350506 0.88422 0.355619
52 3 0.401699 0.985547 0.426854
42 1 0.159642 0.757699 0.927643
36 1 0.160495 0.882534 0.688476
61 3 0.0694929 0.880883 0.849613
51 3 0.363043 0.779248 0.920886
58 3 0.361706 0.881515 0.713803
46 2 0.413952 0.882614 0.852515
56 3 0.36212 0.985363 0.920639
86 3 0.655848 0.0297072 0.10612
80 2 0.601243 0.134082 0.173491
92 3 0.651556 0.133726 0.31197
95 3 0.657582 0.237536 0.105744
71 1 0.853101 0.00593929 0.104426
96 3 0.941322 0.132241 0.167027
66 1 0.599775 0.01318 0.426022
89 3 0.658587 0.0313651 0.602917
94 3 0.65651 0.23755 0.604698
76 1 0.859706 0.0108405 0.601433
67 1 0.861985 0.13582 0.34324
75 1 0.659863 0.0085794 0.926682
79 2 0.607413 0.133839 0.674494
81 3 0.66142 0.133262 0.811301
69 1 0.866981 0.133593 0.839084
87 3 0.955764 0.135884 0.66934
72 1 0.605596 0.384234 0.185228
73 1 0.854717 0.260002 0.10532
85 3 0.900961 0.383375 0.212369
65 1 0.608632 0.259174 0.424753
91 3 0.690544 0.390877 0.34826
82 3 0.885488 0.279011 0.419508
70 1 0.862701 0.258796 0.597889
77 2 0.846485 0.383887 0.351427
84 3 0.902375 0.487058 0.418883
74 1 0.661784 0.258235 0.926555
68 1 0.660198 0.383539 0.689563
93 3 0.570351 0.383792 0.853608
83 3 0.864091 0.280291 0.917946
90 3 0.862112 0.383638 0.711069
78 2 0.915114 0.383389 0.849416
88 3 0.863448 0.486478 0.918152
118 3 0.654448 0.533662 0.106053
112 2 0.600323 0.636082 0.175892
124 3 0.651849 0.636623 0.313917
127 3 0.651769 0.740063 0.107154
103 1 0.855346 0.506482 0.105817
1 3 0.94326 0.633957 0.172482
98 1 0.605111 0.513112 0.427329
121 3 0.657822 0.531092 0.604001
126 3 0.657498 0.736887 0.603783
108 1 0.858126 0.508207 0.600299
99 1 0.853997 0.632883 0.343118
107 1 0.660395 0.508906 0.927058
111 2 0.606044 0.633941 0.674275
113 3 0.658106 0.633764 0.811704
101 1 0.862178 0.633008 0.839641
119 3 0.950147 0.633217 0.671825
104 1 0.602494 0.886718 0.189579
105 1 0.853187 0.760645 0.105662
117 3 0.901161 0.883208 0.212931
97 1 0.603073 0.759005 0.428381
123 3 0.694386 0.884195 0.354194
114 3 0.90236 0.779068 0.419424
102 1 0.857524 0.757693 0.600921
109 2 0.850015 0.883327 0.352635
116 3 0.903175 0.986073 0.420726
106 1 0.659027 0.759017 0.926806
100 1 0.660248 0.884458 0.688044
125 3 0.569904 0.883226 0.850705
115 3 0.860956 0.779697 0.917824
122 3 0.862489 0.883198 0.710444
110 2 0.913711 0.882485 0.849554
120 3 0.862702 0.985839 0.917277
