ITEM: TIMESTEP
2565
ITEM: NUMBER OF ATOMS
127
ITEM: BOX BOUNDS pp pp pp
0.0000000000000000e+00 1.0002500000000000e+01
0.0000000000000000e+00 1.2353714000000000e+01
0.0000000000000000e+00 1.0615024000000000e+01
ITEM: ATOMS id type xs ys zs
22 3 0.150298 0.027821 0.105841
16 2 0.0962896 0.130777 0.175547
28 3 0.136023 0.12718 0.314837
31 3 0.152869 0.234888 0.109788
7 1 0.351 0.00905331 0.115072
32 3 0.450642 0.133587 0.156937
2 1 0.108636 0.00756669 0.428483
25 3 0.159076 0.0284694 0.604882
30 3 0.169154 0.2335 0.605786
12 1 0.35985 0.00900094 0.601608
3 1 0.191954 0.236677 0.425097
11 1 0.159933 0.00603402 0.92689
15 2 0.110195 0.132522 0.674533
17 3 0.158493 0.13175 0.81342
5 1 0.362932 0.132672 0.845842
23 3 0.452893 0.131344 0.678148
8 1 0.10196 0.378661 0.19454
9 1 0.353006 0.258399 0.113656
21 3 0.40938 0.385676 0.213977
27 3 0.201756 0.385476 0.351948
18 3 0.407036 0.290948 0.429727
6 1 0.370027 0.258889 0.607998
13 2 0.35768 0.389613 0.353403
20 3 0.405843 0.496462 0.41695
10 1 0.159139 0.257914 0.928557
4 1 0.16295 0.38131 0.686651
29 3 0.0712345 0.383309 0.84842
19 3 0.360313 0.282294 0.92061
26 3 0.364337 0.386152 0.713635
14 2 0.414329 0.38468 0.853063
24 3 0.363532 0.488321 0.920808
54 3 0.15254 0.528502 0.107779
48 2 0.0995778 0.632051 0.176229
60 3 0.148137 0.631408 0.315132
63 3 0.153934 0.735525 0.108229
39 1 0.354755 0.506736 0.106462
64 3 0.445721 0.63374 0.170995
34 1 0.10285 0.504851 0.428867
57 3 0.157982 0.529637 0.603356
62 3 0.158204 0.735469 0.603792
44 1 0.359058 0.510199 0.600362
35 1 0.351345 0.63337 0.33971
43 1 0.160137 0.507188 0.926937
47 2 0.10629 0.632512 0.673719
49 3 0.15754 0.632469 0.811481
37 1 0.362269 0.633416 0.84049
55 3 0.450656 0.633779 0.673418
40 1 0.105782 0.883198 0.191325
41 1 0.355276 0.760964 0.106592
53 3 0.40437 0.882265 0.215267
33 1 0.105279 0.75601 0.428546
59 3 0.198392 0.880516 0.355558
50 3 0.402544 0.76947 0.416569
38 1 0.35883 0.757628 0.600115
45 2 0.354692 0.878312 0.355832
52 3 0.412776 0.972742 0.431878
42 1 0.160462 0.757688 0.927286
36 1 0.16174 0.882469 0.688536
61 3 0.0704797 0.881151 0.849785
51 3 0.363385 0.778662 0.91977
58 3 0.361729 0.882113 0.713206
46 2 0.413707 0.882611 0.851907
56 3 0.361137 0.984505 0.921292
86 3 0.659739 0.0288647 0.105738
80 2 0.603583 0.13334 0.171809
92 3 0.652026 0.1333 0.311022
95 3 0.660184 0.237482 0.105439
71 1 0.855058 0.00491718 0.10395
96 3 0.940781 0.132401 0.164603
66 1 0.601406 0.0120137 0.426094
89 3 0.660675 0.0314567 0.603113
94 3 0.655998 0.237237 0.604311
76 1 0.860837 0.00996975 0.600836
67 1 0.862195 0.134703 0.342015
75 1 0.660864 0.00824029 0.926471
79 2 0.608524 0.133263 0.675087
81 3 0.663567 0.133428 0.811568
69 1 0.866118 0.133467 0.840147
87 3 0.954475 0.135618 0.670925
72 1 0.607194 0.382746 0.185801
73 1 0.855411 0.26032 0.104493
85 3 0.901677 0.383462 0.212291
65 1 0.603328 0.256258 0.424745
91 3 0.692527 0.387666 0.350359
82 3 0.893252 0.278865 0.419387
70 1 0.860571 0.25826 0.598134
77 2 0.848552 0.382963 0.351826
84 3 0.9031 0.486793 0.418869
74 1 0.662253 0.258262 0.926507
68 1 0.659839 0.383213 0.688991
93 3 0.570384 0.383495 0.853051
83 3 0.864557 0.280499 0.917641
90 3 0.862626 0.383583 0.710647
78 2 0.915325 0.383503 0.84912
88 3 0.863702 0.486617 0.917687
118 3 0.655259 0.53188 0.10567
112 2 0.601368 0.634713 0.174975
124 3 0.652828 0.635023 0.31301
127 3 0.653369 0.738546 0.106391
103 1 0.854903 0.505958 0.105157
1 3 0.943887 0.632986 0.171278
98 1 0.60511 0.512197 0.426915
121 3 0.657646 0.530719 0.603441
126 3 0.657695 0.7365 0.603184
108 1 0.85791 0.508148 0.600136
99 1 0.85464 0.632588 0.34267
107 1 0.660751 0.508515 0.92637
111 2 0.606292 0.633677 0.67393
113 3 0.658917 0.633551 0.81118
101 1 0.862543 0.633117 0.839324
119 3 0.950453 0.632793 0.671376
104 1 0.604694 0.886199 0.189453
105 1 0.854171 0.760233 0.105211
117 3 0.904078 0.882218 0.212509
97 1 0.603243 0.757985 0.427387
123 3 0.697405 0.88318 0.3537
114 3 0.904825 0.777975 0.41902
102 1 0.858069 0.757534 0.600404
109 2 0.852968 0.882498 0.352327
116 3 0.90675 0.985134 0.420205
106 1 0.659427 0.759164 0.926188
100 1 0.660025 0.884533 0.687374
125 3 0.569814 0.8835 0.850429
115 3 0.861959 0.779548 0.917706
122 3 0.863331 0.882662 0.710293
110 2 0.914656 0.882318 0.849324
120 3 0.863815 0.985679 0.916969
