ITEM: TIMESTEP
2565
ITEM: NUMBER OF ATOMS
127
ITEM: BOX BOUNDS pp pp pp
0.0000000000000000e+00 1.0002500000000000e+01
0.0000000000000000e+00 1.2353714000000000e+01
0.0000000000000000e+00 1.0615024000000000e+01
ITEM: ATOMS id type xs ys zs
22 3 0.15117 0.0283263 0.107182
16 2 0.0958509 0.131421 0.175699
28 3 0.133277 0.129103 0.315583
31 3 0.152642 0.235355 0.10975
7 1 0.351649 0.00884309 0.115382
32 3 0.451556 0.133195 0.157106
2 1 0.110953 0.00844513 0.428474
25 3 0.159092 0.029217 0.605523
30 3 0.164938 0.234774 0.60681
12 1 0.359968 0.00948095 0.600969
3 1 0.149738 0.247445 0.426724
11 1 0.160013 0.00624142 0.927708
15 2 0.108955 0.132632 0.675545
17 3 0.158128 0.132033 0.814068
5 1 0.363384 0.13276 0.845472
23 3 0.453028 0.131998 0.677134
8 1 0.104081 0.380513 0.192595
9 1 0.352842 0.257777 0.114783
21 3 0.408313 0.385221 0.214246
27 3 0.201306 0.385673 0.3529
18 3 0.411539 0.293221 0.43098
6 1 0.365853 0.257518 0.604268
13 2 0.357631 0.389134 0.354258
20 3 0.404792 0.4973 0.416171
10 1 0.159518 0.258195 0.928806
4 1 0.163217 0.38205 0.688239
29 3 0.0711093 0.383568 0.849283
19 3 0.360575 0.281988 0.920881
26 3 0.363905 0.384986 0.713243
14 2 0.414261 0.384108 0.852527
24 3 0.363524 0.487962 0.920076
54 3 0.153376 0.528803 0.107687
48 2 0.100007 0.632358 0.17592
60 3 0.148472 0.632009 0.31481
63 3 0.154272 0.735792 0.107912
39 1 0.355595 0.506183 0.106126
64 3 0.446188 0.633387 0.17046
34 1 0.104372 0.506857 0.428784
57 3 0.15831 0.529673 0.603687
62 3 0.158397 0.73554 0.603931
44 1 0.359573 0.509531 0.599948
35 1 0.351551 0.633107 0.338854
43 1 0.160576 0.507368 0.926929
47 2 0.106482 0.632591 0.673867
49 3 0.157542 0.632566 0.811671
37 1 0.362421 0.633192 0.840194
55 3 0.450821 0.633469 0.673276
40 1 0.106444 0.88331 0.191576
41 1 0.355831 0.760671 0.106169
53 3 0.405146 0.881729 0.215103
33 1 0.105959 0.756329 0.428649
59 3 0.199304 0.880786 0.355611
50 3 0.402771 0.7686 0.41616
38 1 0.359172 0.757444 0.599964
45 2 0.355608 0.877705 0.355713
52 3 0.414377 0.971586 0.432111
42 1 0.160753 0.757831 0.927072
36 1 0.162015 0.882764 0.688648
61 3 0.0706505 0.881337 0.849889
51 3 0.363472 0.778545 0.91943
58 3 0.361971 0.882298 0.712993
46 2 0.413792 0.882587 0.85175
56 3 0.361137 0.984409 0.921293
86 3 0.660532 0.0286209 0.105856
80 2 0.604457 0.133107 0.171958
92 3 0.653213 0.133133 0.311173
95 3 0.660784 0.237376 0.105649
71 1 0.855521 0.00453178 0.103627
96 3 0.940386 0.132474 0.163243
66 1 0.602421 0.0115473 0.426262
89 3 0.660655 0.0310016 0.603378
94 3 0.657904 0.236565 0.603954
76 1 0.86057 0.00940323 0.600853
67 1 0.862134 0.13393 0.341064
75 1 0.660861 0.00807545 0.926464
79 2 0.608676 0.133168 0.674874
81 3 0.662962 0.133297 0.811678
69 1 0.865241 0.133269 0.840798
87 3 0.953194 0.134554 0.672047
72 1 0.607219 0.381849 0.187291
73 1 0.855751 0.260725 0.103981
85 3 0.903539 0.383659 0.212043
65 1 0.602839 0.255565 0.425398
91 3 0.696047 0.385316 0.351974
82 3 0.901881 0.279588 0.419338
70 1 0.860307 0.2579 0.599064
77 2 0.851936 0.383006 0.351924
84 3 0.904826 0.487309 0.418779
74 1 0.661747 0.258211 0.926561
68 1 0.659636 0.382753 0.688424
93 3 0.570351 0.383197 0.852378
83 3 0.864156 0.280602 0.917426
90 3 0.863075 0.383727 0.710539
78 2 0.915214 0.383627 0.849219
88 3 0.863397 0.486688 0.917679
118 3 0.655435 0.530899 0.105889
112 2 0.601796 0.633999 0.174878
124 3 0.653192 0.634128 0.312955
127 3 0.654198 0.737731 0.106315
103 1 0.855061 0.505911 0.104898
1 3 0.944352 0.632919 0.170842
98 1 0.604877 0.510783 0.426791
121 3 0.65785 0.530479 0.603138
126 3 0.657873 0.736249 0.602987
108 1 0.858138 0.508253 0.600086
99 1 0.855154 0.632645 0.34249
107 1 0.660525 0.508117 0.926199
111 2 0.606449 0.633408 0.673704
113 3 0.65911 0.633331 0.810958
101 1 0.862582 0.633042 0.839238
119 3 0.950655 0.63275 0.671341
104 1 0.605462 0.885768 0.189361
105 1 0.854656 0.760114 0.104968
117 3 0.904847 0.882028 0.212409
97 1 0.60354 0.757377 0.427164
123 3 0.698204 0.882728 0.353567
114 3 0.905646 0.777776 0.418934
102 1 0.858275 0.75739 0.600281
109 2 0.853776 0.88228 0.352247
116 3 0.907421 0.984985 0.420127
106 1 0.659648 0.758933 0.926055
100 1 0.659888 0.884293 0.687338
125 3 0.569909 0.883376 0.850504
115 3 0.862297 0.779355 0.917678
122 3 0.863504 0.88231 0.710259
110 2 0.914813 0.882167 0.849268
120 3 0.863733 0.985436 0.916921
