ITEM: TIMESTEP
2565
ITEM: NUMBER OF ATOMS
127
ITEM: BOX BOUNDS pp pp pp
0.0000000000000000e+00 1.0002500000000000e+01
0.0000000000000000e+00 1.2353714000000000e+01
0.0000000000000000e+00 1.0615024000000000e+01
ITEM: ATOMS id type xs ys zs
22 3 0.148468 0.0266718 0.102236
16 2 0.0966193 0.129128 0.174336
28 3 0.139537 0.121799 0.312477
31 3 0.153249 0.233548 0.109493
7 1 0.350197 0.0101433 0.113283
32 3 0.448427 0.134666 0.160656
2 1 0.101313 0.00547244 0.42881
25 3 0.159185 0.0266724 0.603328
30 3 0.17648 0.230065 0.602396
12 1 0.360113 0.00727374 0.604576
3 1 0.258119 0.188815 0.420449
11 1 0.159908 0.00553797 0.924907
15 2 0.112441 0.132171 0.672222
17 3 0.158916 0.130839 0.811966
5 1 0.36188 0.133254 0.844466
23 3 0.452056 0.132276 0.676702
8 1 0.101392 0.375078 0.198758
9 1 0.353262 0.25982 0.112233
21 3 0.410455 0.386004 0.213665
27 3 0.203514 0.387364 0.350904
18 3 0.410158 0.289431 0.427313
6 1 0.372181 0.263332 0.610207
13 2 0.357566 0.389665 0.353034
20 3 0.407972 0.495334 0.418413
10 1 0.158651 0.257205 0.927854
4 1 0.162124 0.379639 0.683047
29 3 0.0712363 0.382857 0.847355
19 3 0.360135 0.282414 0.919965
26 3 0.36423 0.388123 0.714342
14 2 0.414233 0.385444 0.853711
24 3 0.363701 0.488635 0.922294
54 3 0.151773 0.529632 0.107553
48 2 0.0991336 0.632793 0.176649
60 3 0.148218 0.632488 0.315456
63 3 0.152671 0.736578 0.108454
39 1 0.353365 0.50742 0.108338
64 3 0.444827 0.634962 0.172592
34 1 0.102971 0.503157 0.428637
57 3 0.157617 0.529992 0.603106
62 3 0.157678 0.735738 0.603632
44 1 0.358366 0.5108 0.600288
35 1 0.351953 0.634862 0.342648
43 1 0.159724 0.507031 0.92702
47 2 0.106035 0.632666 0.673676
49 3 0.15766 0.632759 0.811346
37 1 0.362113 0.633525 0.841142
55 3 0.450411 0.634152 0.673396
40 1 0.103926 0.883648 0.190535
41 1 0.35377 0.761968 0.107911
53 3 0.402204 0.884598 0.215599
33 1 0.103596 0.756295 0.428514
59 3 0.195483 0.880848 0.355248
50 3 0.402959 0.775479 0.418934
38 1 0.357951 0.757852 0.600857
45 2 0.351634 0.882345 0.355859
52 3 0.405175 0.980885 0.429047
42 1 0.159782 0.757731 0.927627
36 1 0.160918 0.882049 0.688423
61 3 0.0697447 0.88101 0.849513
51 3 0.363078 0.779164 0.920743
58 3 0.361648 0.881558 0.713729
46 2 0.413848 0.882639 0.852412
56 3 0.361812 0.985225 0.920718
86 3 0.656925 0.0295142 0.105858
80 2 0.601809 0.133968 0.1728
92 3 0.651751 0.133652 0.311438
95 3 0.658406 0.237682 0.105562
71 1 0.85331 0.00567571 0.104264
96 3 0.941 0.132248 0.166083
66 1 0.599146 0.0131734 0.425819
89 3 0.659287 0.0315488 0.602854
94 3 0.655995 0.23767 0.604756
76 1 0.860043 0.0107962 0.601151
67 1 0.861978 0.135524 0.342792
75 1 0.660087 0.00853124 0.926647
79 2 0.607822 0.133664 0.674721
81 3 0.662396 0.133341 0.811326
69 1 0.867008 0.13367 0.839061
87 3 0.956536 0.136697 0.668784
72 1 0.606152 0.383997 0.185125
73 1 0.854803 0.26006 0.105101
85 3 0.90106 0.383354 0.212384
65 1 0.607804 0.258343 0.424425
91 3 0.690717 0.390478 0.348572
82 3 0.886404 0.278879 0.419436
70 1 0.861745 0.258869 0.597632
77 2 0.846649 0.383683 0.351483
84 3 0.902549 0.486879 0.418909
74 1 0.662006 0.258241 0.926568
68 1 0.660274 0.383675 0.689569
93 3 0.570281 0.383807 0.853501
83 3 0.864449 0.280282 0.917725
90 3 0.86216 0.383596 0.710818
78 2 0.91532 0.383334 0.849114
88 3 0.863866 0.486433 0.917938
118 3 0.654701 0.533413 0.105913
112 2 0.600535 0.635893 0.175682
124 3 0.652095 0.636352 0.313687
127 3 0.652074 0.739842 0.106979
103 1 0.855278 0.506353 0.105693
1 3 0.943289 0.633728 0.172235
98 1 0.605185 0.513202 0.427249
121 3 0.657728 0.531037 0.603935
126 3 0.657505 0.736826 0.603715
108 1 0.858066 0.508251 0.600224
99 1 0.85406 0.632854 0.34304
107 1 0.66057 0.508887 0.926972
111 2 0.606076 0.633924 0.674279
113 3 0.658335 0.633716 0.811649
101 1 0.862279 0.63309 0.839598
119 3 0.950162 0.633118 0.671757
104 1 0.602704 0.88677 0.189608
105 1 0.853289 0.760621 0.105626
117 3 0.90172 0.883029 0.212874
97 1 0.602818 0.758891 0.428156
123 3 0.694886 0.884012 0.354077
114 3 0.90275 0.77882 0.419343
102 1 0.857581 0.7577 0.600803
109 2 0.850443 0.883136 0.352574
116 3 0.903843 0.985808 0.420652
106 1 0.65906 0.759133 0.926714
100 1 0.660171 0.884525 0.687835
125 3 0.569855 0.883335 0.850635
115 3 0.861173 0.779791 0.91776
122 3 0.862676 0.883206 0.710338
110 2 0.913948 0.882545 0.849424
120 3 0.863113 0.985978 0.917029
