ITEM: TIMESTEP
2565
ITEM: NUMBER OF ATOMS
127
ITEM: BOX BOUNDS pp pp pp
0.0000000000000000e+00 1.0002500000000000e+01
0.0000000000000000e+00 1.2353714000000000e+01
0.0000000000000000e+00 1.0615024000000000e+01
ITEM: ATOMS id type xs ys zs
22 3 0.151207 0.0302477 0.110007
16 2 0.0935846 0.133596 0.17652
28 3 0.126398 0.133596 0.317456
31 3 0.151207 0.236944 0.110007
7 1 0.35134 0.00958071 0.116249
32 3 0.451089 0.133596 0.159327
2 1 0.111682 0.0110928 0.428633
25 3 0.157835 0.0306238 0.60624
30 3 0.157835 0.236568 0.60624
12 1 0.35891 0.0103852 0.600615
11 1 0.15874 0.00792787 0.929293
15 2 0.105981 0.133596 0.676079
17 3 0.156547 0.133596 0.814212
5 1 0.362279 0.133596 0.844455
23 3 0.451412 0.133596 0.675536
8 1 0.106003 0.382511 0.19237
9 1 0.35134 0.257611 0.116249
21 3 0.404817 0.385291 0.215227
27 3 0.199092 0.384839 0.356083
18 3 0.414808 0.295345 0.432242
6 1 0.35891 0.256806 0.600615
13 2 0.355388 0.388961 0.355898
20 3 0.401795 0.498266 0.416321
3 1 0.111682 0.256099 0.428633
10 1 0.15874 0.259264 0.929293
4 1 0.160989 0.383067 0.689321
29 3 0.0694164 0.38441 0.850644
19 3 0.359911 0.281974 0.921609
26 3 0.361158 0.383952 0.713178
14 2 0.412555 0.383895 0.852089
24 3 0.361981 0.487952 0.919527
54 3 0.153453 0.530087 0.108155
48 2 0.0995559 0.633596 0.176151
60 3 0.148009 0.633596 0.31502
63 3 0.153453 0.737104 0.108155
39 1 0.355188 0.506165 0.106169
64 3 0.445537 0.633596 0.170294
34 1 0.105728 0.509412 0.429339
57 3 0.157321 0.530651 0.604774
62 3 0.157321 0.736541 0.604774
44 1 0.358247 0.509278 0.600356
35 1 0.350863 0.633596 0.338544
43 1 0.159602 0.508177 0.927393
47 2 0.105336 0.633596 0.674691
49 3 0.156079 0.633596 0.812584
37 1 0.361098 0.633596 0.840384
55 3 0.449626 0.633596 0.673525
40 1 0.106003 0.884681 0.19237
41 1 0.355188 0.761026 0.106169
53 3 0.404817 0.8819 0.215227
33 1 0.105728 0.75778 0.429339
59 3 0.199092 0.882353 0.356083
50 3 0.401795 0.768926 0.416321
38 1 0.358247 0.757914 0.600356
45 2 0.355388 0.878231 0.355898
52 3 0.414808 0.971847 0.432242
42 1 0.159602 0.759014 0.927393
36 1 0.160989 0.884125 0.689321
61 3 0.0694164 0.882782 0.850644
51 3 0.361981 0.77924 0.919527
58 3 0.361158 0.88324 0.713178
46 2 0.412555 0.883297 0.852089
56 3 0.359911 0.985218 0.921609
86 3 0.659598 0.0291314 0.106483
80 2 0.604069 0.133596 0.173022
92 3 0.654078 0.133596 0.311923
95 3 0.659598 0.23806 0.106483
71 1 0.854376 0.00489133 0.103456
96 3 0.93831 0.133596 0.1609
66 1 0.602655 0.0116555 0.426805
89 3 0.658864 0.030907 0.6043
94 3 0.658864 0.236285 0.6043
76 1 0.858585 0.00918584 0.601223
67 1 0.861618 0.133596 0.339813
75 1 0.658975 0.00846868 0.927049
79 2 0.607077 0.133596 0.674997
81 3 0.659772 0.133596 0.812397
69 1 0.862321 0.133596 0.841901
87 3 0.950098 0.133596 0.67359
72 1 0.605101 0.381459 0.189588
73 1 0.854376 0.2623 0.103456
85 3 0.904383 0.384496 0.212586
65 1 0.602655 0.255536 0.426805
91 3 0.697754 0.384548 0.353702
82 3 0.906479 0.28162 0.420385
70 1 0.858585 0.258006 0.601223
77 2 0.853344 0.38446 0.352452
84 3 0.905478 0.488864 0.419125
74 1 0.658975 0.258723 0.927049
68 1 0.658303 0.382792 0.687969
93 3 0.568674 0.383496 0.851316
83 3 0.861619 0.281442 0.917198
90 3 0.862344 0.384765 0.710626
78 2 0.913548 0.384459 0.84963
88 3 0.861607 0.487449 0.918073
118 3 0.654231 0.530089 0.106651
112 2 0.601125 0.633596 0.175233
124 3 0.652215 0.633596 0.313431
127 3 0.654231 0.737103 0.106651
103 1 0.85432 0.506557 0.10506
1 3 0.943922 0.633596 0.170918
98 1 0.602649 0.509953 0.427313
121 3 0.656703 0.530728 0.603177
126 3 0.656703 0.736464 0.603177
108 1 0.857225 0.50931 0.60046
99 1 0.854733 0.633596 0.342689
107 1 0.658795 0.508083 0.926387
111 2 0.605262 0.633596 0.673872
113 3 0.657954 0.633596 0.811129
101 1 0.861304 0.633596 0.839574
119 3 0.949529 0.633596 0.671876
104 1 0.605101 0.885733 0.189588
105 1 0.85432 0.760635 0.10506
117 3 0.904383 0.882696 0.212586
97 1 0.602649 0.757239 0.427313
123 3 0.697754 0.882643 0.353702
114 3 0.905478 0.778328 0.419125
102 1 0.857225 0.757882 0.60046
109 2 0.853344 0.882732 0.352452
116 3 0.906479 0.985571 0.420385
106 1 0.658795 0.759109 0.926387
100 1 0.658303 0.8844 0.687969
125 3 0.568674 0.883695 0.851316
115 3 0.861607 0.779743 0.918073
122 3 0.862344 0.882427 0.710626
110 2 0.913548 0.882733 0.84963
120 3 0.861619 0.98575 0.917198
