# LAMMPS data file written by OVITO Pro 3.6.0
127 atoms
3 atom types
0.0 10.0025 xlo xhi
0.0 12.353714 ylo yhi
0.0 10.615024 zlo zhi

Masses

1 7.01
2 30.974
3 32.066

Atoms  # atomic

22 3 1.5276518175 0.3641763704 1.0773824759
16 2 1.0531932325 1.6530998852 1.8231622171
28 3 1.684240955 1.6657130272 3.2225726761
2 1 0.85405346 2.1826665432 4.7645216773
31 3 1.519879875 2.9434329588 1.0709497714
7 1 3.54112506 0.0739926935 1.0989203596
3 1 3.5869065025 1.6305543571 3.6057113523
32 3 4.46075491 1.6489243299 1.7888650745
25 3 1.5822854725 0.3801769008 6.5570489351
11 1 1.607621805 0.0706967226 9.8053205843
30 3 1.5611201825 2.8939810416 6.5001205614
15 2 1.0507326175 1.6348287422 7.2728412335
17 3 1.53946477 1.6727052293 8.744115405
12 1 3.5317727225 0.1119142717 6.3342501964
5 1 3.598639435 1.6501967624 8.9156435778
23 3 4.4830704875 1.6511109372 7.1524244012
8 1 1.0622755025 4.6675543458 2.0621488674
27 3 2.015403725 4.7807267197 3.7434519037
9 1 3.5368940025 3.2197361261 1.1020836368
18 3 4.0847109225 3.4650191176 4.4682775875
21 3 4.0844108475 4.7291499638 2.2584100461
13 2 3.5537382125 4.7409106995 3.7361381522
20 3 4.1023953425 6.0224232213 4.4603481646
10 1 1.608982145 3.2459136461 9.811816979
4 1 1.568452015 4.7321025014 7.256717012
29 3 0.6866086093 4.756266366 9.0231206958
6 1 3.5474366375 3.1838856481 6.346011643
19 3 3.6317177025 3.477138111 9.7619794413
26 3 3.6188744925 4.7466428228 7.5591708909
14 2 4.1350335 4.751473125 9.0264962734
24 3 3.6111925725 6.0209901905 9.7634443146
54 3 1.5293322375 6.5438734892 1.167217424
48 2 1.0066015875 7.8242865305 1.8941024225
60 3 1.49893464 7.8222234602 3.3743250592
34 1 1.0582344925 6.2370442946 4.5316068207
63 3 1.5295823 9.1012775929 1.1651793394
39 1 3.549587175 6.2565631627 1.1177089521
35 1 3.5439357625 7.8294133218 3.634775288
64 3 4.4691069975 7.8231005739 1.8556229605
57 3 1.580334985 6.553385849 6.419011163
43 1 1.58687662 6.2868050546 9.8300960503
62 3 1.5815852975 9.0961384479 6.4151579093
47 2 1.05846455 7.8269549327 7.1489214433
49 3 1.5617003275 7.8278691075 8.6222124694
44 1 3.586996525 6.2855696832 6.344684765
37 1 3.5954086275 7.8301668983 8.8867494825
55 3 4.5039257 7.8251018756 7.1439960722
33 1 1.0494723025 9.4259084894 4.5302374826
40 1 1.051282755 11.0014888193 2.0799927228
59 3 2.03030745 10.8410881967 3.7248649967
41 1 3.548186825 9.3960742701 1.1197045766
50 3 4.1122578075 9.6186758427 4.4566753663
53 3 4.0947334275 10.9194601583 2.2501621725
45 2 3.563510655 10.8999783513 3.7292490016
52 3 4.093963235 12.175709335 4.4621739487
42 1 1.588537035 9.3717127461 9.8320492147
36 1 1.56791188 10.9160258258 7.2543074016
61 3 0.6873377915 10.8997930456 9.0297338557
38 1 3.589757215 9.369081405 6.3400141544
51 3 3.6131330575 9.6347356709 9.7664271364
58 3 3.62866694 10.8989159319 7.5573132617
46 2 4.1365438775 10.9028320593 9.0253816959
56 3 3.62910705 12.1792424972 9.756512704
86 3 6.5701521275 0.3746930871 1.1500317002
80 2 6.0140731425 1.6504438367 1.8559626412
92 3 6.4761486325 1.6508020944 3.3451231281
66 1 6.078339205 0.0972035926 4.534823173
95 3 6.5674114425 2.9294979694 1.1524094655
71 1 8.5935178425 0.093822134 1.1042172566
67 1 8.476338555 1.6206466785 3.5794391679
96 3 9.49201241 1.6502832384 1.8693800316
89 3 6.56808161 0.3771156504 6.4485421598
75 1 6.589306915 0.0918192264 9.8239499514
94 3 6.5663311725 2.9238646758 6.445081662
79 2 6.040369715 1.6490849281 7.1745142662
81 3 6.546216145 1.653408728 8.6487500294
76 1 8.613332795 0.113944234 6.3695239212
69 1 8.58530579 1.6504438367 8.9405782692
87 3 9.4890416675 1.6510121075 7.220445475
65 1 6.0593644625 3.182119067 4.5397591592
72 1 6.077058885 4.7300394312 1.9946373148
91 3 6.979124345 4.7267409895 3.7698408534
73 1 8.5935578525 3.2018479482 1.1028054584
82 3 8.9982990125 3.3636816016 4.4736594047
85 3 9.0507921325 4.7021818061 2.2873466016
77 2 8.5403045425 4.6758313341 3.7631958484
84 3 9.0720574475 5.949178051 4.4973627533
74 1 6.58632617 3.2115456137 9.8254891299
68 1 6.57916438 4.7408118698 7.2891140653
93 3 5.69514343 4.7613684499 9.0390856919
70 1 8.580084485 3.1799448133 6.3907539692
83 3 8.613132745 3.4807453955 9.7721592493
90 3 8.6008996875 4.7470875565 7.5715055488
78 2 9.1316323375 4.749397701 9.0337463348
88 3 8.62363537 6.0235474093 9.772031869
118 3 6.5524377 6.5398832396 1.1555939727
112 2 6.02850675 7.8203209883 1.8785195672
124 3 6.545535975 7.8157006992 3.3512161519
98 1 6.07363803 6.2873362643 4.5199621394
127 3 6.55607861 9.0958666662 1.1519317895
103 1 8.575283285 6.2457783704 1.1247148679
99 1 8.57318276 7.8284744395 3.6504218334
1 3 9.446981155 7.8231623425 1.8697621724
121 3 6.5823151675 6.5550783078 6.4162087967
107 1 6.6052809075 6.2895722865 9.8255952801
126 3 6.5822951625 9.0983621164 6.418098271
111 2 6.06219517 7.826769627 7.1533266783
113 3 6.578944325 7.825904867 8.6208112862
108 1 8.5857358975 6.2790716296 6.3655114421
101 1 8.6174438225 7.8299074703 8.891834079
119 3 9.5009246375 7.8262137099 7.1324681561
97 1 6.068816825 9.3489695586 4.5185928013
104 1 6.072057635 10.9140862927 1.9800628868
123 3 6.9439655575 10.8776057753 3.7354906357
105 1 8.5754533275 9.4039435859 1.124322112
114 3 9.0547731275 9.6855464966 4.4859303724
117 3 9.0399294175 10.9416103675 2.2821346248
109 2 8.5064360775 10.9582261128 3.7539820076
116 3 8.89950432 12.2667314997 4.4731180385
106 1 6.60601109 9.3646958366 9.8251282191
100 1 6.58072477 10.9172859046 7.2897615818
125 3 5.697243955 10.8955804292 9.045348556
102 1 8.5860359725 9.3790014374 6.3624224701
115 3 8.6221850075 9.6328331989 9.7734118222
122 3 8.6027401475 10.9072299815 7.5734587132
110 2 9.1325725725 10.9068099552 9.0350625978
120 3 8.61431304 12.1769570601 9.772467085
