# LAMMPS data file written by OVITO Pro 3.6.0
127 atoms
3 atom types
0.0 10.0025 xlo xhi
0.0 12.353714 ylo yhi
0.0 10.615024 zlo zhi

Masses

1 7.01
2 30.974
3 32.066

Atoms  # atomic

22 3 1.5223504925 0.3614647302 1.0695379732
16 2 1.05674412 1.6519139287 1.8196380291
28 3 1.70494613 1.6519139287 3.2105458539
2 1 0.9228446535 1.6519139287 4.8366189203
31 3 1.5223504925 2.9423705394 1.0695379732
7 1 3.53824434 0.0776775594 1.1009796743
3 1 3.6050710425 1.6519139287 3.5958924551
32 3 4.4618451825 1.6519139287 1.7812753324
25 3 1.5576193075 0.4070227566 6.5103852896
11 1 1.61104266 0.0608942977 9.809619669
30 3 1.5576193075 2.8968223959 6.5103959047
15 2 1.0442309925 1.6519262824 7.2841780791
17 3 1.54822696 1.6519262824 8.7462702548
12 1 3.53924459 0.1150747224 6.3386342013
5 1 3.6066514375 1.6519262824 8.9201337329
23 3 4.4801097475 1.6519262824 7.1519361101
8 1 1.0552737525 4.6593885408 2.0751416568
27 3 2.025206175 4.8029881123 3.7318284525
9 1 3.53824434 3.2261600574 1.1009796743
18 3 4.089162035 3.4728390185 4.4650187752
21 3 4.0918126975 4.732856078 2.2538986609
13 2 3.559469645 4.7497065439 3.7321787483
20 3 4.1097371775 6.0302678297 4.4590212866
10 1 1.61104266 3.2429487547 9.809619669
4 1 1.563090675 4.7343879385 7.2471528754
29 3 0.687103733 4.75401799 9.0223670291
6 1 3.53924459 3.1887653651 6.3386342013
19 3 3.63106754 3.4776322596 9.7599944318
26 3 3.6185344075 4.749570653 7.5581306185
14 2 4.1341232725 4.7528567409 9.0251163203
24 3 3.610642435 6.0216202299 9.7638052254
54 3 1.5287320875 6.5500132851 1.1654128699
48 2 1.00621149 7.8287709287 1.8936247464
60 3 1.4982044575 7.8287709287 3.3739535333
34 1 1.05262309 6.2326710799 4.5297067314
63 3 1.5287320875 9.1075409259 1.1654128699
39 1 3.54812681 6.258626233 1.1190252151
35 1 3.54356567 7.8287709287 3.6349345134
64 3 4.46903698 7.8287709287 1.8550709792
57 3 1.58043501 6.5573143301 6.416346792
43 1 1.58619645 6.2858908798 9.8300854353
62 3 1.58043501 9.100239881 6.416346792
47 2 1.0579344175 7.8287832824 7.1480297813
49 3 1.56103016 7.8287832824 8.6214269576
44 1 3.587916755 6.28665681 6.342020394
37 1 3.5942883475 7.8287832824 8.8869299379
55 3 4.5036156225 7.8287832824 7.1448240441
33 1 1.05262309 9.4248831312 4.5297067314
40 1 1.0552737525 10.9981656702 2.0751310418
59 3 2.025206175 10.854553745 3.7318284525
41 1 3.54812681 9.3989279781 1.1190252151
50 3 4.1097371775 9.6272863813 4.4590212866
53 3 4.0918126975 10.9246981331 2.2538986609
45 2 3.559469645 10.9078476672 3.7321787483
52 3 4.089162035 12.1847151925 4.4650187752
42 1 1.58619645 9.3716633313 9.8300854353
36 1 1.563090675 10.9231786262 7.2471528754
61 3 0.687103733 10.9035485747 9.0223670291
38 1 3.587916755 9.370897401 6.342020394
51 3 3.610642435 9.6359339811 9.7638052254
58 3 3.6185344075 10.907983558 7.5581306185
46 2 4.1341232725 10.9046974701 9.0251163203
56 3 3.63106754 12.1799343052 9.7599944318
86 3 6.57116238 0.3744966631 1.1503183058
80 2 6.0148533375 1.6519139287 1.8532664251
92 3 6.471237405 1.6519139287 3.3440191656
66 1 6.0710873925 0.1075663821 4.537052328
95 3 6.57116238 2.9293373711 1.1503183058
71 1 8.5953983125 0.0980782356 1.105299989
67 1 8.4733077975 1.6519139287 3.5795453182
96 3 9.496553545 1.6519139287 1.8743797079
89 3 6.56496083 0.3784078489 6.4484996997
75 1 6.5864462 0.0900906947 9.8248628435
94 3 6.56496083 2.9254335975 6.4484996997
79 2 6.03786909 1.6519262824 7.1749813272
81 3 6.54127491 1.6519262824 8.650363513
76 1 8.595688385 0.1173700424 6.3797886494
69 1 8.57526328 1.6519262824 8.9484015419
87 3 9.4837403425 1.6519262824 7.2383317905
65 1 6.0710873925 3.1962764232 4.537052328
72 1 6.0753084475 4.7374887207 1.9872492581
91 3 6.958359155 4.7568593443 3.7500438336
73 1 8.5953983125 3.2057640756 1.105299989
82 3 8.9353432775 3.3725762757 4.4747315221
85 3 9.0450907075 4.7077409774 2.2860409536
77 2 8.5208196725 4.6843430431 3.7598096557
84 3 9.0627751275 5.9577021136 4.4925435324
74 1 6.5864462 3.2137569285 9.8248628435
68 1 6.5800446 4.7409848218 7.2885726991
93 3 5.6944732625 4.7625544064 9.0393935276
70 1 8.595688385 3.1864675743 6.3797886494
83 3 8.6131827575 3.4808318715 9.7728492259
90 3 8.6001194925 4.7489035525 7.5726625864
78 2 9.13196242 4.7494224084 9.03384187
88 3 8.6250257175 6.0239550818 9.7727430756
118 3 6.55407811 6.5508903988 1.1524413106
112 2 6.0285167525 7.8287709287 1.8775960601
124 3 6.54595608 7.8287709287 3.3500591143
98 1 6.071817575 6.2987881572 4.5184866511
127 3 6.55407811 9.1066638122 1.1524413106
103 1 8.57558336 6.2486320783 1.1258082154
99 1 8.5733127925 7.8287709287 3.6506022888
1 3 9.44640101 7.8287709287 1.8696135621
121 3 6.58176503 6.5571413781 6.417206609
107 1 6.606031095 6.2910423785 9.8247248482
126 3 6.58176503 9.100412833 6.417206609
111 2 6.0620051225 7.8287832824 7.1534222135
113 3 6.579384435 7.8287832824 8.6207582111
108 1 8.58546583 6.2785033588 6.363261057
101 1 8.6179439475 7.8287832824 8.8917916189
119 3 9.5004045075 7.8287832824 7.131979865
97 1 6.071817575 9.3587660538 4.5184866511
104 1 6.0753084475 10.9200654903 1.9872492581
123 3 6.958359155 10.9006948667 3.7500438336
105 1 8.57558336 9.4089221327 1.1258082154
114 3 9.0627751275 9.6998520974 4.4925435324
117 3 9.0450907075 10.9498132336 2.2860409536
109 2 8.5208196725 10.9732111679 3.7598096557
116 3 8.9353432775 12.2849779353 4.4747315221
106 1 6.606031095 9.3665241862 9.8247248482
100 1 6.5800446 10.916581743 7.2885726991
125 3 5.6944732625 10.8949998046 9.0393935276
102 1 8.58546583 9.3790508522 6.363261057
115 3 8.6250257175 9.6335991292 9.7727430756
122 3 8.6001194925 10.9086630123 7.5726519714
110 2 9.13196242 10.9081318026 9.03384187
120 3 8.6131827575 12.1767346932 9.7728492259
