# LAMMPS data file written by OVITO Pro 3.6.0
127 atoms
3 atom types
0.0 10.0025 xlo xhi
0.0 12.353714 ylo yhi
0.0 10.615024 zlo zhi

Masses

1 7.01
2 30.974
3 32.066

Atoms  # atomic

22 3 1.515438765 0.3555880684 1.0793887154
16 2 1.0434507975 1.6428463026 1.8398808799
28 3 1.63656904 1.6019431555 3.2562966073
2 1 0.9754618045 0.4749879496 4.6148498389
31 3 1.5388546175 2.9303009608 1.1028691485
7 1 3.5327729725 0.1004249471 1.103962496
3 1 3.5530180325 1.7078391919 3.621050062
32 3 4.4615851175 1.6609321399 1.8113158503
25 3 1.571892875 0.403345056 6.4805889173
11 1 1.6023304825 0.0604525288 9.814014289
30 3 1.608902125 2.9471514267 6.5922908148
15 2 1.05634402 1.6720504825 7.2409218563
17 3 1.53254304 1.6073417285 8.724647451
12 1 3.5605399125 0.1313335689 6.363685658
5 1 3.5822853475 1.6563983268 8.9048268683
23 3 4.4889719625 1.6584366896 7.1553435328
8 1 1.045561325 4.6533846358 2.0837504412
27 3 2.03382833 4.830475126 3.7180076912
9 1 3.54716657 3.2328804778 1.097784552
18 3 4.09794423 3.4963234289 4.4597431082
21 3 4.0966138975 4.7488541376 2.2458312427
13 2 3.5671415625 4.7705843205 3.7253002127
20 3 4.111727675 6.0533939823 4.453023798
10 1 1.5976293075 3.2121262383 9.8034735701
4 1 1.5772842225 4.7475569976 7.2683935384
29 3 0.6892592718 4.7614672796 9.0415377624
6 1 3.531622685 3.1983889083 6.3335177597
19 3 3.62314556 3.4797694521 9.7527762155
26 3 3.6414801425 4.7704978445 7.5570691161
14 2 4.1394446025 4.7568840517 9.0273773204
24 3 3.617164065 6.0250545624 9.7700362445
54 3 1.5334332625 6.5675802664 1.1646273582
48 2 1.007271755 7.8410134592 1.8939325821
60 3 1.5017053325 7.8471656088 3.3737624629
34 1 1.04366085 6.2343141238 4.5309168442
63 3 1.531362745 9.1251696758 1.1718561895
39 1 3.5486169325 6.267520907 1.118982755
35 1 3.5422753475 7.8284126709 3.6326841283
64 3 4.464815925 7.8445466214 1.8551134393
57 3 1.58263556 6.5679385241 6.4142237872
43 1 1.592858115 6.2858044038 9.8351063416
62 3 1.5777243325 9.1108887824 6.4239153041
47 2 1.058244495 7.8339718422 7.15185119
49 3 1.5635908 7.8311799029 8.6242293239
44 1 3.591797725 6.2920677368 6.338071605
37 1 3.5983093525 7.826164295 8.8873333088
55 3 4.502625375 7.8373320525 7.1423825885
33 1 1.0583345175 9.4058460579 4.5356405298
40 1 1.0655763275 10.971568124 2.033679373
59 3 1.9827255575 10.9448346869 3.787801474
41 1 3.549867245 9.4051542499 1.114152919
50 3 4.0675866425 9.6500789837 4.4632885263
53 3 4.045751185 10.9364094539 2.269407211
45 2 3.534743465 10.9400043847 3.7500756787
52 3 4.0794196 12.209570865 4.4767696067
42 1 1.5887870975 9.3705762044 9.8307754119
36 1 1.5789846475 10.9309491123 7.2780532103
61 3 0.6857263888 10.89744584 9.0295003252
38 1 3.58197527 9.3739734758 6.3533890847
51 3 3.6134731425 9.6381205885 9.7643784367
58 3 3.62194526 10.9141233539 7.5621749427
46 2 4.137254055 10.9093424665 9.0301903018
56 3 3.631767715 12.1821579737 9.7663740612
86 3 6.55699884 0.3741754665 1.1556788929
80 2 6.0170738925 1.6569295365 1.8653993976
92 3 6.4980741125 1.6564477417 3.3475858137
66 1 6.0559836175 0.14114983 4.5404491357
95 3 6.565641 2.9304368517 1.1491294231
71 1 8.5843155425 0.1056658867 1.1031132941
67 1 8.540794665 1.7029347675 3.6128128034
96 3 9.4815798025 1.6545699772 1.8596354395
89 3 6.568381685 0.3843561622 6.4403898214
75 1 6.587626495 0.0985657131 9.826879698
94 3 6.57348296 2.9308568779 6.4479477185
79 2 6.0463412075 1.6600056113 7.1739304399
81 3 6.556138625 1.6506662035 8.6461811936
76 1 8.578123995 0.1385073706 6.3908601194
69 1 8.60443057 1.6556447503 8.9267575079
87 3 9.4956033075 1.6556447503 7.1973471828
65 1 6.0931329025 3.219353161 4.5294519708
72 1 6.0670063725 4.7529308632 1.9672187078
91 3 6.92685128 4.8129452058 3.7162137522
73 1 8.5862960375 3.213608684 1.1070833131
82 3 8.8669461825 3.428501539 4.4748801325
85 3 9.032957675 4.7313489249 2.2760097559
77 2 8.4884515825 4.7284705095 3.7446514015
84 3 9.0424500475 6.0010389424 4.474222001
74 1 6.5952984125 3.2080618664 9.8235147354
68 1 6.5834754575 4.7397123892 7.2928080936
93 3 5.7003347275 4.7598612968 9.0547216222
70 1 8.63551834 3.1926938462 6.3600447047
83 3 8.6169236925 3.4814989721 9.773783348
90 3 8.609211765 4.7527579112 7.5747749762
78 2 9.134503055 4.7528814484 9.037811889
88 3 8.6190642275 6.0267717286 9.7738576532
118 3 6.5566087425 6.5796251375 1.149522179
112 2 6.0240956475 7.8510323213 1.8782966517
124 3 6.5377040175 7.8598899342 3.3517575181
98 1 6.063495495 6.3249409697 4.5189430971
127 3 6.543935575 9.134966171 1.1577594376
103 1 8.5738929375 6.26307357 1.1199911822
99 1 8.5669311975 7.831044012 3.6465579647
1 3 9.44884162 7.8422241232 1.8668536559
121 3 6.582065105 6.5629476236 6.4198285199
107 1 6.6052509 6.2960456327 9.8252025243
126 3 6.5793344225 9.1067997031 6.4154232849
111 2 6.0608448325 7.8344536371 7.1536875891
113 3 6.57624365 7.8360349125 8.6213526524
108 1 8.5861359975 6.2806776125 6.3609682118
101 1 8.615093235 7.8270537624 8.8917066987
119 3 9.5010646725 7.8341200868 7.1355465131
97 1 6.0615850175 9.3803109311 4.5242718391
104 1 6.06607614 10.938521939 1.9994140756
123 3 6.9800545775 10.9404491184 3.7782691825
105 1 8.5689316975 9.4119858538 1.1181441681
114 3 9.06658608 9.685138824 4.4889238092
117 3 9.0474112875 10.946601268 2.2827609112
109 2 8.53921427 10.9612280653 3.7586950782
116 3 9.035918415 12.255230192 4.4771517476
106 1 6.603550475 9.3717374535 9.8257438905
100 1 6.5812949125 10.9221656217 7.2901967977
125 3 5.69678384 10.9004107313 9.0408159408
102 1 8.58390544 9.3768889523 6.3666047896
115 3 8.6196243675 9.6337473738 9.7691658126
122 3 8.6049507 10.9139256944 7.5689897881
110 2 9.130502055 10.9083665231 9.0334384991
120 3 8.612292535 12.1764629115 9.7722441695
