# LAMMPS data file written by OVITO Pro 3.6.0
127 atoms
3 atom types
0.0 10.0025 xlo xhi
0.0 12.353714 ylo yhi
0.0 10.615024 zlo zhi

Masses

1 7.01
2 30.974
3 32.066

Atoms  # atomic

22 3 1.5202699725 0.360562909 1.0697821187
16 2 1.054523565 1.6510862298 1.8214213531
28 3 1.6917728375 1.6417962369 3.2178065303
2 1 0.8647701385 1.247552162 4.7884904015
31 3 1.5261314375 2.9404804211 1.0745058044
7 1 3.5371940775 0.0821639341 1.1018076461
3 1 3.5927279575 1.6682455386 3.6027603756
32 3 4.46087494 1.6541375972 1.7859140979
25 3 1.5586995775 0.4092254238 6.5024027916
11 1 1.60988237 0.0580340423 9.8112437677
30 3 1.57543376 2.9155012114 6.5444807467
15 2 1.048962175 1.6652435861 7.2771933933
17 3 1.54206542 1.6360517599 8.7456227384
12 1 3.545266095 0.118363281 6.3440584786
5 1 3.6014301325 1.6532110686 8.9172570614
23 3 4.4821102475 1.6522845401 7.1521484106
8 1 1.05222299 4.6565595403 2.0791753659
27 3 2.029407225 4.813760551 3.7262661799
9 1 3.5402148325 3.2291620099 1.0994192657
18 3 4.093123025 3.4797447447 4.4627046999
21 3 4.094243305 4.7367351442 2.2509370692
13 2 3.562710455 4.7557104489 3.7298859031
20 3 4.111967735 6.0368029444 4.4572485776
10 1 1.6089121275 3.2361047972 9.8063183966
4 1 1.56607142 4.7390082275 7.2512502747
29 3 0.6872407672 4.7565752088 9.0274410106
6 1 3.5326929525 3.1907172519 6.3345792621
19 3 3.6297772175 3.4780769933 9.757425596
26 3 3.6256761925 4.7559575231 7.5574087969
14 2 4.135773685 4.754190942 9.0250950903
24 3 3.6123528625 6.022435575 9.7656097795
54 3 1.5291922025 6.5546953427 1.1652005695
48 2 1.0064815575 7.8321682 1.8940281173
60 3 1.4986245625 7.8337124143 3.3742932141
34 1 1.0502725025 6.2317198439 4.5299933371
63 3 1.52910218 9.1121118001 1.1666866728
39 1 3.54812681 6.2607263643 1.1195771963
35 1 3.54392576 7.8283014875 3.6349238984
64 3 4.46931705 7.8330206063 1.8555486553
57 3 1.5812252075 6.5602298066 6.4153914399
43 1 1.587816855 6.2857549889 9.8314123133
62 3 1.580535035 9.1030071129 6.4182468813
47 2 1.05834452 7.8300186538 7.1485817626
49 3 1.5614202575 7.8294133218 8.6219470938
44 1 3.5892470875 6.2878427666 6.3404706005
37 1 3.594998525 7.8276714481 8.8867600975
55 3 4.5039156975 7.8315010994 7.1442720628
33 1 1.0571342175 9.4222023752 4.5311185296
40 1 1.0606951075 10.9926064989 2.0661082714
59 3 2.01874456 10.8699217652 3.739566805
41 1 3.5492770975 9.4004968997 1.1181760131
50 3 4.1053560825 9.6331791029 4.4600403289
53 3 4.0874716125 10.9275394873 2.2571787034
45 2 3.5556786975 10.9141357076 3.7348961944
52 3 4.0857111725 12.1905461455 4.4674602307
42 1 1.586576545 9.3709097547 9.8300642052
36 1 1.56667157 10.9245004736 7.2538191105
61 3 0.6867166362 10.9019425919 9.0225687145
38 1 3.587396625 9.3716509775 6.3438355631
51 3 3.6109325075 9.6363416537 9.7634761597
58 3 3.61842438 10.9102566414 7.5589055153
46 2 4.1347234225 10.9056239986 9.0260822875
56 3 3.63166769 12.1802060869 9.7614699202
86 3 6.56868176 0.3744546604 1.1518468693
80 2 6.0139931225 1.6530257629 1.8548374487
92 3 6.473678015 1.6527786886 3.3447303723
66 1 6.061775065 0.1183325203 4.5393345582
95 3 6.570622245 2.9291767728 1.1500635452
71 1 8.5944780825 0.1011750646 1.1033574396
67 1 8.47227754 1.6761519155 3.5774966185
96 3 9.4936428175 1.6533593132 1.8710041302
89 3 6.565901065 0.3794480316 6.4460688592
75 1 6.5862161425 0.0914751754 9.8253511346
94 3 6.5671913875 2.9262860038 6.4486907701
79 2 6.0395195025 1.6539646452 7.1746522615
81 3 6.5445257225 1.6506785573 8.6492913956
76 1 8.5833753075 0.1216203377 6.3884505089
69 1 8.5818949375 1.6529516406 8.9430727998
87 3 9.4874412675 1.6522227715 7.2259759025
65 1 6.0764887425 3.204318691 4.5355025345
72 1 6.0728878425 4.7420348875 1.981931131
91 3 6.9472263725 4.774451033 3.7388662134
73 1 8.594288035 3.2090625172 1.1043234068
82 3 8.9066160975 3.3852511863 4.4732772638
85 3 9.041199735 4.7136089916 2.2831855122
77 2 8.5097369025 4.6950042983 3.755499956
84 3 9.05682364 5.9677209757 4.4877773866
74 1 6.58836668 3.2126327406 9.8240985618
68 1 6.580464705 4.7404289046 7.2892945207
93 3 5.696403745 4.7622208561 9.0435121569
70 1 8.6090417225 3.1892100988 6.3719866067
83 3 8.61391294 3.4805847972 9.772467085
90 3 8.601849925 4.7499659719 7.5732251827
78 2 9.132382525 4.7503242296 9.0346273818
88 3 8.623055225 6.0244492304 9.7732525968
118 3 6.5557285225 6.5590314963 1.1520803998
112 2 6.0287368075 7.8351701525 1.8783391118
124 3 6.5460361 7.8387897907 3.3509613913
98 1 6.0696070225 6.3062003856 4.5184972661
127 3 6.5531078675 9.1150149229 1.1549358412
103 1 8.575603365 6.2522640703 1.1248740933
99 1 8.5735128425 7.8293144921 3.650687209
1 3 9.4467510975 7.8330823748 1.8699320128
121 3 6.582185135 6.5586485312 6.4178541254
107 1 6.6060511 6.2923518722 9.8249902238
126 3 6.582305165 9.1018952786 6.4164104822
111 2 6.062215175 7.8302410206 7.1533160633
113 3 6.579184385 7.8309204749 8.6207688261
108 1 8.5858959375 6.2784415902 6.3626135405
101 1 8.61767388 7.8279061687 8.891834079
119 3 9.5007846025 7.8307722303 7.1321921655
97 1 6.0741081475 9.3679572171 4.5194313882
104 1 6.077498995 10.9257605525 1.9933316668
123 3 6.97542342 10.9251922816 3.7659557546
105 1 8.57566338 9.4115287663 1.1255003797
114 3 9.0708771525 9.7088456012 4.4971716829
117 3 9.0500519475 10.9551253306 2.2874952119
109 2 8.5371037425 10.9823158551 3.7631427733
116 3 8.984785635 12.2955527145 4.4736063296
106 1 6.6055609775 9.3675495445 9.8254466698
100 1 6.5792944125 10.9164582058 7.2889229949
125 3 5.694883365 10.8956916126 9.0389583116
102 1 8.585765905 9.3787914242 6.3649806909
115 3 8.6241855075 9.6339326795 9.7724246249
122 3 8.6004195675 10.9098489688 7.5719513798
110 2 9.1317123575 10.9081194489 9.033831255
120 3 8.61315275 12.1767841081 9.7723609348
