# LAMMPS data file written by OVITO Pro 3.6.0
127 atoms
3 atom types
0.0 10.0025 xlo xhi
0.0 12.353714 ylo yhi
0.0 10.615024 zlo zhi

Masses

1 7.01
2 30.974
3 32.066

Atoms  # atomic

22 3 1.55498865 0.4140853749 1.1386842395
16 2 1.032958175 1.7022553132 1.8587119324
28 3 1.591857865 1.7791201217 3.288014299
32 3 4.4616851425 1.6494678933 1.8521200025
31 3 1.5058863775 2.9830389659 1.0864052463
7 1 3.556508905 0.0838607167 1.1059368905
3 1 3.50731661 1.5848950302 3.6467914952
25 3 1.637789345 0.3748129181 6.5872062183
11 1 1.58499615 0.1300944914 9.816222214
30 3 1.580975145 2.9283737814 6.4566944982
15 2 1.06854707 1.655224724 7.2103612022
17 3 1.530802605 1.7270862783 8.7026212762
12 1 3.552267845 0.1073230139 6.3355558444
5 1 3.571392625 1.6554347371 8.8924497504
23 3 4.5026553825 1.6513456578 7.1575408428
8 1 1.05778438 4.7297305883 2.0096788038
27 3 1.9696822975 4.74460446 3.7977052914
9 1 3.530462395 3.2017367648 1.1147367454
18 3 4.061435105 3.4628325102 4.4836375273
21 3 4.025146035 4.73302903 2.2752773193
13 2 3.52604129 4.7351168076 3.7569542143
20 3 4.05769417 6.0227691253 4.4689675641
2 1 1.066366525 3.1195845667 4.556923653
10 1 1.5971992 3.2563154733 9.8165406647
4 1 1.5865265325 4.7359568602 7.29563169
29 3 0.6846211125 4.7776382912 9.0377481989
6 1 3.5716426875 3.1769675682 6.3759353956
19 3 3.6329780175 3.479127059 9.7735392024
26 3 3.622685445 4.7476434736 7.5681405862
14 2 4.140454855 4.750262461 9.0353385884
24 3 3.61966469 6.0243009858 9.7667349721
54 3 1.5329731475 6.5466530749 1.1666229827
48 2 1.0043010125 7.8309451823 1.8858333188
60 3 1.4983044825 7.8254354259 3.3656844296
34 1 1.043840895 6.2983434235 4.5380713703
63 3 1.5321129325 9.1033530169 1.1582583438
39 1 3.5453361125 6.2579838398 1.1095778437
35 1 3.535503655 7.8385427164 3.627249236
64 3 4.4530429825 7.8161207255 1.848765655
57 3 1.57315319 6.5559430678 6.4287769851
43 1 1.5936683175 6.3001470657 9.8297457545
62 3 1.5791646925 9.1000545753 6.4157629657
47 2 1.05722424 7.8349354319 7.1572330071
49 3 1.5690821725 7.8389256816 8.6271272255
44 1 3.5763638675 6.2918453699 6.3630487565
37 1 3.6048709925 7.8414829004 8.8924709804
55 3 4.4989944675 7.827374959 7.1432636355
33 1 1.0370692025 9.4322830059 4.5289849098
40 1 1.041320265 11.0252697187 2.0853745399
59 3 2.032648035 10.8351954751 3.715247785
41 1 3.5442358375 9.3949747896 1.1166049896
50 3 4.1043758375 9.6013559357 4.4514527745
53 3 4.09490347 10.9060934398 2.2435490125
45 2 3.566711455 10.8865004494 3.723219668
52 3 4.1026954175 12.1583029519 4.4583525401
42 1 1.5997498375 9.3868460458 9.8342146796
36 1 1.5887070775 10.9303684878 7.2763441914
61 3 0.6950167107 10.9131474105 9.0511655892
38 1 3.5899672675 9.3715521478 6.3392286427
51 3 3.62386574 9.6427038164 9.7738258081
58 3 3.6505023975 10.8925908304 7.5600200928
46 2 4.1411650325 10.9135180219 9.0327909827
56 3 3.6127729675 12.1890389924 9.7541137085
86 3 6.5540881125 0.38125538 1.1517831791
80 2 6.01942448 1.6539646452 1.8817146895
92 3 6.5290618575 1.6556323966 3.3531268562
66 1 6.1118175725 0.0856735007 4.5203336652
95 3 6.542575235 2.9376761281 1.1589801654
71 1 8.57418301 0.10617906 1.1168915952
67 1 8.6263060375 1.61842301 3.6531711246
96 3 9.471507285 1.6692708968 1.8544446928
89 3 6.581464955 0.3746078465 6.4443810704
75 1 6.60629116 0.114107056 9.8253405196
94 3 6.5798145425 2.9220610336 6.4301144781
79 2 6.0606047725 1.6482201682 7.1692067542
81 3 6.5769538275 1.6610680307 8.6384428411
76 1 8.647741395 0.1129439538 6.3547902678
69 1 8.6282265175 1.6608703713 8.907353244
87 3 9.5079764 1.6576954668 7.1646422939
65 1 6.0562236775 3.1632302383 4.5358740604
72 1 6.050812325 4.7216512594 2.0016220006
91 3 6.97350294 4.73086713 3.7799782013
73 1 8.566921195 3.2160300119 1.1085375713
82 3 9.0643555225 3.4658468164 4.4795719731
85 3 9.03529826 4.7453456828 2.273844291
77 2 8.53233255 4.7375381356 3.7521031483
84 3 9.0471512225 6.0255857721 4.4726403624
74 1 6.5913974375 3.2041210316 9.8284188765
68 1 6.58912687 4.7344867682 7.2902286428
93 3 5.69958454 4.7551668855 9.0408690159
70 1 8.5962585275 3.179092407 6.3751498839
83 3 8.61307273 3.4918390307 9.7713843526
90 3 8.6123425475 4.751905505 7.5652426846
78 2 9.129141715 4.7609854847 9.0328546728
88 3 8.60991194 6.0348139964 9.7637096902
118 3 6.5270013425 6.5174365413 1.1542458647
112 2 6.011682545 7.8041252692 1.8728617594
124 3 6.522250155 7.7948352763 3.3466729216
98 1 6.0510023725 6.2851249495 4.5310548395
127 3 6.551857555 9.0712580679 1.1424950331
103 1 8.5522075175 6.2639012688 1.1062022661
99 1 8.5498269225 7.8382091661 3.6289157948
1 3 9.4467711025 7.8255713167 1.8533407303
121 3 6.5750533525 6.5559430678 6.421187243
107 1 6.5955184675 6.2892634437 9.8228353739
126 3 6.5806147425 9.1007340295 6.4227688815
111 2 6.057053885 7.8299074703 7.1566916409
113 3 6.5690518525 7.8306734006 8.6254075916
108 1 8.5802345225 6.2970339298 6.3655326721
101 1 8.60819151 7.8425823809 8.8943179946
119 3 9.5001844525 7.8343177462 7.1449408093
97 1 6.0547833175 9.3270417163 4.5181045102
104 1 6.0595245025 10.9023132033 1.9547566696
123 3 6.91780902 10.8305257712 3.7013527186
105 1 8.5684115675 9.3996444935 1.1115628532
114 3 9.03205745 9.6419131787 4.4617493478
117 3 9.0279064125 10.9263905919 2.2685580091
109 2 8.47843908 10.9165570355 3.7354057156
116 3 8.8566836175 12.2093855593 4.4759628649
106 1 6.6010198425 9.3718980518 9.8244170125
100 1 6.58832667 10.9267241421 7.2993575635
125 3 5.702205195 10.9180024201 9.0652835711
102 1 8.5868761825 9.3838193858 6.3591955028
115 3 8.61827403 9.6448533627 9.7735604325
122 3 8.6187841575 10.916149363 7.5766326054
110 2 9.1398343875 10.9184471538 9.0414316122
120 3 8.624375555 12.1915220889 9.7767661697
