# LAMMPS data file written by OVITO Pro 3.6.0
127 atoms
3 atom types
0.0 10.0025 xlo xhi
0.0 12.353714 ylo yhi
0.0 10.615024 zlo zhi

Masses

1 7.01
2 30.974
3 32.066

Atoms  # atomic

22 3 1.51869958 0.3596252621 1.0740281283
16 2 1.0498123875 1.6491837579 1.8286183394
28 3 1.6660063975 1.6273423915 3.2351090194
2 1 0.871129728 0.846748265 4.7087397262
31 3 1.53162281 2.9372190406 1.0856728096
7 1 3.5358337375 0.0892925213 1.1026674631
3 1 3.5744633925 1.6860966553 3.611337315
32 3 4.4607249025 1.65704072 1.7956268448
25 3 1.5657213325 0.4084211971 6.4954817959
11 1 1.606861615 0.0582090944 9.8128572513
30 3 1.5944085025 2.9366137087 6.5773979361
15 2 1.05298318 1.6734217447 7.2621306743
17 3 1.53530373 1.6213384865 8.7387548179
12 1 3.5524378875 0.1237051505 6.3519029813
5 1 3.59257792 1.6546440994 8.9120344696
23 3 4.484820925 1.6542981955 7.153199298
8 1 1.0489121625 4.6548670815 2.0819034271
27 3 2.0322379325 4.8224946268 3.7218397149
9 1 3.5432555925 3.231447447 1.0978588572
18 3 4.09574368 3.4871693268 4.4609319909
21 3 4.095763685 4.7418619355 2.2482514682
13 2 3.5653611175 4.762443223 3.7275824429
20 3 4.11270792 6.0442398802 4.455199878
10 1 1.6044510125 3.2258882757 9.8037495608
4 1 1.5713827475 4.745209792 7.2599545944
29 3 0.687759897 4.7596636373 9.0343089311
6 1 3.5300722975 3.1942009993 6.3333160743
19 3 3.627366615 3.4788552773 9.7546975348
26 3 3.6342383325 4.7636909481 7.5569629659
14 2 4.13787421 4.7557351563 9.025848757
24 3 3.614603425 6.0236215315 9.7678495496
54 3 1.5306525675 6.5603904048 1.165009499
48 2 1.0069216675 7.8361460959 1.8942404178
60 3 1.4999448925 7.8394815987 3.3743038291
34 1 1.04730176 6.2319792719 4.5305347033
63 3 1.53006242 9.1178068623 1.1687778325
39 1 3.5483568675 6.2636541946 1.1196196564
35 1 3.543945765 7.8281038281 3.6342763819
64 3 4.4683868175 7.8381350439 1.8556972656
57 3 1.5821454375 6.5638370911 6.414563468
43 1 1.59003741 6.2857920501 9.8332380974
62 3 1.57987487 9.1065649825 6.4206671068
47 2 1.058604585 7.8317728812 7.1497388002
49 3 1.56231048 7.8301916058 8.6227856807
44 1 3.5907674675 6.289769946 6.3390588023
37 1 3.596318855 7.8267325658 8.8867494825
55 3 4.50380567 7.8344289297 7.1433804008
33 1 1.0599549225 9.4158772737 4.5328593936
40 1 1.0650561975 10.9835141654 2.0519690594
59 3 2.00562128 10.8976311457 3.7558502518
41 1 3.55032736 9.4024240791 1.1165200694
50 3 4.093023 9.6404801479 4.4611973665
53 3 4.0744683625 10.9310602958 2.2619342341
45 2 3.5483368625 10.9241175085 3.7400975562
52 3 4.08226031 12.1984154613 4.4708782684
42 1 1.587456765 9.3704279599 9.8302658907
36 1 1.572573045 10.9269094479 7.2644129044
61 3 0.6862745257 10.8997436308 9.0249358649
38 1 3.58589625 9.3726886895 6.3471156055
51 3 3.6117927225 9.6369222783 9.7635610799
58 3 3.61998477 10.9119985151 7.5600094778
46 2 4.13579369 10.9069829072 9.027642696
56 3 3.6318377325 12.180762004 9.7633593944
86 3 6.56424065 0.3742742962 1.1536832684
80 2 6.0146932975 1.6545946846 1.8587756226
92 3 6.4825102225 1.6541623046 3.34592987
66 1 6.0554634875 0.1297016433 4.540555286
95 3 6.5688718075 2.9294609082 1.1496920194
71 1 8.59102722 0.1040069065 1.1020836368
67 1 8.4931327525 1.6962267008 3.5881753327
96 3 9.4881614475 1.6541252435 1.8654949328
89 3 6.56664125 0.3812615568 6.4432877229
75 1 6.58648621 0.0941711265 9.8259986511
94 3 6.5699320725 2.927830218 6.4484041645
79 2 6.042010125 1.6565959863 7.1743550408
81 3 6.549376935 1.6500608716 8.6478477523
76 1 8.57462312 0.1301204342 6.3942675421
69 1 8.59222752 1.6543846715 8.9357165882
87 3 9.4915222875 1.653841108 7.211157329
65 1 6.083460485 3.2121880069 4.533039849
72 1 6.070057135 4.7471369714 1.9750844406
91 3 6.936233625 4.7935375211 3.7273276823
73 1 8.5914173175 3.2119532863 1.1044401721
82 3 8.8833902925 3.4050171287 4.4732772638
85 3 9.0369086625 4.7217253817 2.2797462444
77 2 8.498424075 4.7104464408 3.7502773642
84 3 9.049801885 5.9827430919 4.4815039074
74 1 6.59128741 3.2107055612 9.8235890406
68 1 6.5815349725 4.7398729875 7.2906744738
93 3 5.698684315 4.7614796333 9.0489152041
70 1 8.622815165 3.1906678371 6.3647047003
83 3 8.6150432225 3.4808689326 9.7726687705
90 3 8.604930695 4.7511025135 7.573830239
78 2 9.1330927025 4.7515719547 9.0359224147
88 3 8.6207246425 6.0254498812 9.7735710475
118 3 6.55687881 6.5684820875 1.1512311979
112 2 6.0277565625 7.8425082586 1.8787212527
124 3 6.5439255725 7.8491669105 3.3516301379
98 1 6.0668863425 6.3149962299 4.5187307966
127 3 6.55039719 9.1243172695 1.1568783906
103 1 8.575123245 6.2571314336 1.1228678537
99 1 8.571962455 7.8294380292 3.6497000118
1 3 9.4476513225 7.8376903102 1.8692738813
121 3 6.5824351975 6.5604892346 6.4186927123
107 1 6.60593107 6.2940566847 9.8252237543
126 3 6.5819150675 9.1038718729 6.4157311206
111 2 6.0620251275 7.8320693703 7.1533691384
113 3 6.5783341725 7.8333418028 8.6209068214
108 1 8.586166005 6.2790098611 6.3619023339
101 1 8.6168836825 7.8271896533 8.8917810038
119 3 9.5011646975 7.8325882263 7.1331793627
97 1 6.071297445 9.3750358952 4.5213739376
104 1 6.0750483825 10.9318756409 1.9972273806
123 3 6.983165355 10.9390531487 3.7759338772
105 1 8.573962955 9.412492356 1.1227829336
114 3 9.072807635 9.7039041156 4.496364941
117 3 9.051202235 10.9544952912 2.28664601
109 2 8.5431252475 10.9767813913 3.7623997216
116 3 9.018314015 12.2839278696 4.4749438226
106 1 6.6048207925 9.3691061125 9.8259031158
100 1 6.57916438 10.9178418218 7.2895598963
125 3 5.69570357 10.8972358268 9.0395421379
102 1 8.5854358225 9.3779513717 6.3665304844
115 3 8.6224250675 9.6339697406 9.7711720521
122 3 8.6020399725 10.9118379168 7.5706138868
110 2 9.1312922525 10.9081935711 9.0336614146
120 3 8.6128626775 12.1766482172 9.7720743291
