# LAMMPS data file written by OVITO Pro 3.6.0
127 atoms
3 atom types
0.0 10.0025 xlo xhi
0.0 12.353714 ylo yhi
0.0 10.615024 zlo zhi

Masses

1 7.01
2 30.974
3 32.066

Atoms  # atomic

22 3 1.5355938025 0.3700715627 1.0949715707
16 2 1.0460514475 1.6574978074 1.8348387435
28 3 1.6488421075 1.6890862541 3.2472419918
2 1 0.9362510043 2.6952591982 4.6495715824
31 3 1.516919135 2.9460890073 1.077424936
7 1 3.5456361875 0.0715171328 1.0976465567
3 1 3.56241038 1.6039568109 3.6169526627
32 3 4.46147509 1.6444028705 1.8051697514
25 3 1.6038108525 0.3597105028 6.5876520493
11 1 1.6003499875 0.0859743137 9.8030065091
30 3 1.5704025025 2.8982183655 6.4876266782
15 2 1.0550336925 1.6302084532 7.24919096
17 3 1.533363245 1.6907787129 8.7303371038
12 1 3.5309125075 0.1070629682 6.3334859147
5 1 3.5861463125 1.6480225087 8.9076504647
23 3 4.4874515825 1.6470342116 7.1546323262
8 1 1.06538628 4.681192846 2.0409612795
27 3 1.9906875475 4.7284210946 3.7762310979
9 1 3.533943265 3.2076789012 1.1034317448
18 3 4.0806699125 3.451738875 4.4745935268
21 3 4.056313825 4.7230719365 2.2667109949
13 2 3.53924459 4.7228866308 3.7464453405
20 3 4.07649887 6.0107366078 4.4624180943
10 1 1.6040109025 3.2439988204 9.8135472279
4 1 1.5767040775 4.7282975575 7.2728943086
29 3 0.6859884542 4.7591447814 9.0277170012
6 1 3.55812931 3.1755715986 6.3594502634
19 3 3.6317177025 3.4759398008 9.7651108734
26 3 3.621285095 4.7443820931 7.5613363558
14 2 4.136693915 4.7491506267 9.0292349496
24 3 3.612842985 6.0198907099 9.7641342912
54 3 1.530722585 6.5350529374 1.1708053021
48 2 1.00709171 7.8183567477 1.8941236525
60 3 1.50097515 7.8130817119 3.3740596836
34 1 1.0589946825 6.2471125715 4.5345153373
63 3 1.5324330125 9.0926299931 1.1648821187
39 1 3.5499172575 6.2535117954 1.1151825764
35 1 3.542785475 7.8293515532 3.6333528748
64 3 4.4660462325 7.8156142232 1.8553575849
57 3 1.578374495 6.5482343503 6.4227051914
43 1 1.588256965 6.2869656529 9.8306161865
62 3 1.582495525 9.0910857789 6.4143723976
47 2 1.0583345175 7.8244100676 7.1510656782
49 3 1.5631006775 7.8266584436 8.6236985727
44 1 3.5832956 6.2841119449 6.3509157841
37 1 3.5975291575 7.8311799029 8.8871316233
55 3 4.5030154725 7.8213463465 7.1427328843
33 1 1.0450912075 9.4241789695 4.530842539
40 1 1.046881655 11.0033665838 2.0829755445
59 3 2.0332781925 10.830105745 3.7195044096
41 1 3.5484869 9.3917504702 1.1193118207
50 3 4.1121377775 9.6077922206 4.4539260751
53 3 4.096283815 10.9116402574 2.246829055
45 2 3.5664813975 10.890231271 3.7262661799
52 3 4.0972340525 12.1648504204 4.4602632444
42 1 1.5917678425 9.3716880387 9.8344269801
36 1 1.5750636675 10.9105531305 7.2652090312
61 3 0.6885981065 10.8964451891 9.038682321
38 1 3.5913676175 9.3664130028 6.338485591
51 3 3.61622383 9.6330555658 9.7692613478
58 3 3.6388394825 10.8895518167 7.5570478861
46 2 4.1389444775 10.9010778319 9.0267828791
56 3 3.6249760175 12.1781430166 9.7534874221
86 3 6.56716138 0.3739493935 1.1493311086
80 2 6.01638372 1.6479607402 1.8627881017
92 3 6.49238269 1.6485166573 3.3469064522
66 1 6.0894519825 0.0874038855 4.5308956141
95 3 6.559859555 2.9298562271 1.1548721511
71 1 8.58838656 0.0908178343 1.1060748858
67 1 8.52225003 1.6028573304 3.6036626527
96 3 9.484270475 1.6495173081 1.8620238199
89 3 6.57220264 0.3742557656 6.4480750988
75 1 6.593828045 0.0947311203 9.8235253505
94 3 6.567701515 2.9207515399 6.4414937839
79 2 6.044730805 1.6451440934 7.1741215103
81 3 6.55367801 1.6534457892 8.646818095
76 1 8.6310072125 0.1121570222 6.3615520381
69 1 8.5998794325 1.6486031333 8.9302498508
87 3 9.4941229375 1.6489490373 7.2026653098
65 1 6.05575356 3.1672946102 4.5404385207
72 1 6.0689868675 4.7218489188 1.9983844182
91 3 6.981004815 4.717908084 3.7772395251
73 1 8.586926195 3.1988707032 1.1026780781
82 3 9.028996685 3.3917739473 4.4762707006
85 3 9.048641595 4.7080868814 2.2841514793
77 2 8.5403645575 4.6910264024 3.7598308858
84 3 9.0686766025 5.965546722 4.4916518704
74 1 6.5872764075 3.2069623858 9.8264975572
68 1 6.580464705 4.7371428167 7.2900057273
93 3 5.6963737375 4.7583541437 9.0403807248
70 1 8.57622352 3.168208785 6.3926009833
83 3 8.6125526 3.4810048235 9.7721274043
90 3 8.60395045 4.7443820931 7.5694993092
78 2 9.130862145 4.749224749 9.0334703442
88 3 8.6207046375 6.0236833001 9.7698557891
118 3 6.5463461775 6.5269983159 1.1573879118
112 2 6.025365965 7.8100921131 1.8784771071
124 3 6.53991457 7.8020498453 3.3517362881
98 1 6.06467579 6.2795410708 4.5230829564
127 3 6.5565287225 9.0825370088 1.1502546157
103 1 8.570802165 6.2456177721 1.1197788818
99 1 8.56882167 7.8274984961 3.6478317676
1 3 9.4483314925 7.8171831449 1.867798393
121 3 6.5802146425 6.5518663422 6.4154869751
107 1 6.6040005875 6.2868791769 9.8257757356
126 3 6.5821751325 9.0955454696 6.4193826889
111 2 6.06123493 7.8240271025 7.1535389788
113 3 6.576983835 7.8225323031 8.621161582
108 1 8.5844155675 6.2804305382 6.3665729445
101 1 8.6157534 7.8304880949 8.8917385437
119 3 9.50105467 7.8240641636 7.1346866961
97 1 6.06483583 9.3368258578 4.518921867
104 1 6.0682266775 10.9071064443 1.9704669051
123 3 6.9304421775 10.852218893 3.720555297
105 1 8.5742930375 9.3969637375 1.1211482199
114 3 9.045280755 9.6634209948 4.4770031373
117 3 9.034518065 10.9298866929 2.2774640142
109 2 8.4923325525 10.9360141351 3.7468911715
116 3 8.873237755 12.2378608701 4.4743069212
106 1 6.60549096 9.3623115698 9.8252237543
100 1 6.5827552775 10.9178294681 7.2919376617
125 3 5.699804595 10.8970258137 9.0524818522
102 1 8.5861560025 9.3776054677 6.3613185076
115 3 8.6195643525 9.6312519235 9.7737515029
122 3 8.607451325 10.9054881078 7.5744140653
110 2 9.1338929025 10.9051051426 9.0370582223
120 3 8.6162435225 12.1762405447 9.7733799771
