ITEM: TIMESTEP
2493
ITEM: NUMBER OF ATOMS
127
ITEM: BOX BOUNDS pp pp pp
0.0000000000000000e+00 1.0002500000000000e+01
0.0000000000000000e+00 1.2353714000000000e+01
0.0000000000000000e+00 1.0615024000000000e+01
ITEM: ATOMS id type xs ys zs
22 3 0.151989 0.0291866 0.10078
16 2 0.105426 0.133651 0.171589
28 3 0.169135 0.132899 0.303137
2 1 0.0864554 0.100986 0.451105
31 3 0.152575 0.238024 0.101225
7 1 0.353631 0.00665095 0.103797
3 1 0.359183 0.13504 0.339402
32 3 0.445976 0.133898 0.168244
25 3 0.155831 0.0331257 0.612566
11 1 0.160948 0.0046977 0.924279
30 3 0.157504 0.236002 0.61653
15 2 0.10487 0.134797 0.685556
17 3 0.154168 0.132434 0.823891
12 1 0.354438 0.00958119 0.597649
5 1 0.360053 0.133823 0.84006
23 3 0.448099 0.133748 0.673776
8 1 0.105196 0.376936 0.195871
27 3 0.20289 0.389661 0.351037
9 1 0.353933 0.261392 0.103572
18 3 0.40921 0.281676 0.420414
21 3 0.409322 0.383426 0.212052
13 2 0.356182 0.384962 0.351378
20 3 0.411094 0.488663 0.4199
10 1 0.160851 0.261954 0.923815
4 1 0.156568 0.38361 0.683112
29 3 0.0687069 0.385032 0.85044
6 1 0.353181 0.25828 0.596756
19 3 0.362887 0.281541 0.919209
26 3 0.362477 0.384982 0.711954
14 2 0.413474 0.384839 0.850219
24 3 0.361145 0.4875 0.91998
54 3 0.152881 0.530585 0.109769
48 2 0.100623 0.633993 0.178429
60 3 0.149825 0.634118 0.317879
34 1 0.105001 0.504441 0.426753
63 3 0.152872 0.737601 0.109909
39 1 0.354724 0.506789 0.105471
35 1 0.354304 0.63368 0.342432
64 3 0.44682 0.634062 0.174804
57 3 0.158083 0.531033 0.604369
43 1 0.158742 0.508815 0.926179
62 3 0.158014 0.736864 0.604638
47 2 0.105808 0.633819 0.67344
49 3 0.156103 0.63377 0.81224
44 1 0.358835 0.508984 0.597311
37 1 0.35941 0.633629 0.837187
55 3 0.450279 0.633939 0.673034
33 1 0.105687 0.762702 0.426859
40 1 0.106043 0.889822 0.19464
59 3 0.201824 0.879891 0.35229
41 1 0.354839 0.760945 0.105339
50 3 0.410433 0.77978 0.420163
53 3 0.408645 0.884555 0.21264
45 2 0.355479 0.88347 0.35185
52 3 0.408469 0.986792 0.420862
42 1 0.158618 0.75855 0.926052
36 1 0.156628 0.884309 0.683354
61 3 0.0686545 0.882483 0.849981
38 1 0.35865 0.75861 0.597628
51 3 0.361003 0.780036 0.919779
58 3 0.361752 0.883156 0.712095
46 2 0.413369 0.882781 0.850312
56 3 0.363076 0.985955 0.91959
86 3 0.656704 0.0303111 0.108511
80 2 0.601249 0.133808 0.174737
92 3 0.647206 0.133788 0.315094
66 1 0.606026 0.0095787 0.427633
95 3 0.656898 0.237109 0.108343
71 1 0.859233 0.00818985 0.103943
67 1 0.847016 0.13568 0.337022
96 3 0.949127 0.133835 0.17626
89 3 0.656426 0.0307153 0.607259
75 1 0.658457 0.00740467 0.925608
94 3 0.656555 0.236875 0.607506
79 2 0.603801 0.133884 0.675896
81 3 0.654289 0.133618 0.814816
76 1 0.858123 0.00984484 0.601831
69 1 0.857975 0.133802 0.842492
87 3 0.948507 0.133743 0.680731
65 1 0.607497 0.259381 0.427272
72 1 0.607137 0.383855 0.18671
91 3 0.694549 0.386479 0.352224
73 1 0.859214 0.259765 0.104034
82 3 0.890439 0.274027 0.42141
85 3 0.903894 0.381554 0.21509
77 2 0.850761 0.380048 0.353791
84 3 0.905456 0.483071 0.422776
74 1 0.658672 0.260054 0.92549
68 1 0.657882 0.383725 0.686696
93 3 0.569498 0.385489 0.851954
70 1 0.860689 0.258158 0.60028
83 3 0.861176 0.281744 0.920626
90 3 0.85997 0.384497 0.713444
78 2 0.91301 0.384526 0.851117
88 3 0.86209 0.487663 0.9207
118 3 0.655409 0.530936 0.108533
112 2 0.602723 0.634236 0.176951
124 3 0.65444 0.634529 0.315681
98 1 0.606809 0.51047 0.42567
127 3 0.655147 0.737836 0.108802
103 1 0.857346 0.506104 0.10597
99 1 0.857137 0.633762 0.343917
1 3 0.944439 0.634067 0.176159
121 3 0.658054 0.530905 0.604601
107 1 0.66044 0.509349 0.925574
126 3 0.658066 0.736774 0.604465
111 2 0.60607 0.633837 0.673886
113 3 0.657754 0.633892 0.812129
108 1 0.858375 0.508223 0.599397
101 1 0.861552 0.633648 0.837665
119 3 0.949841 0.63388 0.671896
97 1 0.607259 0.758311 0.425758
104 1 0.607598 0.884411 0.187784
123 3 0.697368 0.884365 0.354776
105 1 0.857352 0.761838 0.106029
114 3 0.906861 0.785905 0.423661
117 3 0.904779 0.886788 0.215496
109 2 0.853497 0.888989 0.354511
116 3 0.898254 0.995292 0.421441
106 1 0.660391 0.758278 0.925617
100 1 0.657765 0.883658 0.686661
125 3 0.569346 0.881977 0.851525
102 1 0.858362 0.759188 0.59962
115 3 0.862203 0.779841 0.920622
122 3 0.859827 0.883123 0.713324
110 2 0.912943 0.882983 0.851042
120 3 0.8611 0.985678 0.920616
