ITEM: TIMESTEP
2493
ITEM: NUMBER OF ATOMS
127
ITEM: BOX BOUNDS pp pp pp
0.0000000000000000e+00 1.0002500000000000e+01
0.0000000000000000e+00 1.2353714000000000e+01
0.0000000000000000e+00 1.0615024000000000e+01
ITEM: ATOMS id type xs ys zs
22 3 0.153521 0.0299563 0.103153
16 2 0.104579 0.13417 0.172853
28 3 0.164843 0.136727 0.30591
2 1 0.0936017 0.218174 0.438018
31 3 0.151654 0.238478 0.1015
7 1 0.354475 0.00578912 0.103405
3 1 0.356152 0.129836 0.340739
32 3 0.446036 0.13311 0.170058
25 3 0.160341 0.0291176 0.620597
11 1 0.159995 0.00695939 0.923503
30 3 0.157001 0.234603 0.611174
15 2 0.105477 0.131961 0.682918
17 3 0.153298 0.136864 0.822451
12 1 0.353003 0.00866646 0.596653
5 1 0.358525 0.133403 0.839155
23 3 0.448633 0.133323 0.67401
8 1 0.106512 0.37893 0.192271
27 3 0.199019 0.382753 0.355744
9 1 0.353306 0.259653 0.10395
18 3 0.407965 0.279409 0.421534
21 3 0.40553 0.38232 0.213538
13 2 0.353836 0.382305 0.352938
20 3 0.407548 0.486553 0.420387
10 1 0.160361 0.262593 0.924496
4 1 0.157631 0.382743 0.685151
29 3 0.0685817 0.38524 0.850466
6 1 0.355724 0.257054 0.599099
19 3 0.363081 0.281368 0.919933
26 3 0.362038 0.384045 0.712324
14 2 0.413566 0.384431 0.850609
24 3 0.361194 0.487294 0.919841
54 3 0.153034 0.528995 0.110297
48 2 0.100684 0.632875 0.178438
60 3 0.15006 0.632448 0.317857
34 1 0.105873 0.505687 0.427179
63 3 0.153205 0.736024 0.109739
39 1 0.354903 0.506205 0.105057
35 1 0.35419 0.633765 0.342284
64 3 0.446493 0.632653 0.174786
57 3 0.157798 0.530062 0.605058
43 1 0.158786 0.508913 0.926104
62 3 0.15821 0.735899 0.604273
47 2 0.105807 0.633365 0.673674
49 3 0.156271 0.633547 0.812405
44 1 0.35824 0.508682 0.598295
37 1 0.359663 0.633913 0.837222
55 3 0.450189 0.633117 0.672889
33 1 0.104483 0.762862 0.426833
40 1 0.104662 0.890693 0.196229
59 3 0.203277 0.876668 0.3504
41 1 0.35476 0.760237 0.105446
50 3 0.411111 0.777725 0.419587
53 3 0.409526 0.883268 0.211665
45 2 0.356559 0.881535 0.351037
52 3 0.409621 0.984712 0.420184
42 1 0.159137 0.758613 0.926463
36 1 0.157467 0.88318 0.684427
61 3 0.0688426 0.882038 0.851499
38 1 0.359047 0.758186 0.597124
51 3 0.361532 0.77977 0.920324
58 3 0.363793 0.88148 0.71192
46 2 0.413791 0.882413 0.850378
56 3 0.362407 0.985788 0.918838
86 3 0.656552 0.0302702 0.108274
80 2 0.601488 0.133398 0.175486
92 3 0.649076 0.133443 0.315299
66 1 0.608793 0.00707511 0.426838
95 3 0.655822 0.237164 0.108796
71 1 0.858624 0.00735146 0.104199
67 1 0.852012 0.129747 0.339487
96 3 0.94819 0.133524 0.175414
89 3 0.657056 0.030295 0.607448
75 1 0.659218 0.00766823 0.925436
94 3 0.656606 0.236427 0.606828
79 2 0.604322 0.13317 0.675846
81 3 0.655204 0.133842 0.814583
76 1 0.862885 0.00907881 0.599297
69 1 0.859773 0.13345 0.841284
87 3 0.949175 0.133478 0.678535
65 1 0.605424 0.256384 0.427737
72 1 0.606747 0.382221 0.18826
91 3 0.697926 0.381902 0.355839
73 1 0.858478 0.25894 0.103879
82 3 0.902674 0.274555 0.421692
85 3 0.904638 0.381107 0.215181
77 2 0.853823 0.379726 0.354199
84 3 0.906641 0.482895 0.423141
74 1 0.658563 0.259595 0.925716
68 1 0.657882 0.383459 0.686763
93 3 0.569495 0.385176 0.851659
70 1 0.857408 0.256458 0.602222
83 3 0.86104 0.281778 0.920594
90 3 0.86018 0.384045 0.713093
78 2 0.912858 0.384437 0.851008
88 3 0.861855 0.487601 0.92038
118 3 0.654471 0.528343 0.109033
112 2 0.602386 0.632206 0.176964
124 3 0.653828 0.631555 0.315754
98 1 0.606316 0.508312 0.426102
127 3 0.655489 0.735207 0.108361
103 1 0.856866 0.505566 0.10549
99 1 0.856668 0.633615 0.343648
1 3 0.944597 0.63278 0.175958
121 3 0.657857 0.530356 0.604378
107 1 0.660235 0.508906 0.925648
126 3 0.658053 0.73626 0.604745
111 2 0.605972 0.633334 0.673907
113 3 0.657534 0.633213 0.812166
108 1 0.858227 0.508384 0.59977
101 1 0.86136 0.633857 0.837656
119 3 0.949868 0.633337 0.672131
97 1 0.606332 0.755791 0.42571
104 1 0.606671 0.882901 0.18563
123 3 0.692871 0.878458 0.350499
105 1 0.857215 0.760659 0.105619
114 3 0.904302 0.782228 0.421761
117 3 0.903226 0.884745 0.214551
109 2 0.849021 0.885241 0.35298
116 3 0.887102 0.990622 0.421507
106 1 0.660384 0.757854 0.925596
100 1 0.658111 0.883769 0.686945
125 3 0.569838 0.882085 0.852799
102 1 0.858401 0.759092 0.599275
115 3 0.861741 0.779624 0.920747
122 3 0.86053 0.88277 0.713556
110 2 0.913161 0.882739 0.851346
120 3 0.861409 0.985634 0.920712
