ITEM: TIMESTEP
2493
ITEM: NUMBER OF ATOMS
127
ITEM: BOX BOUNDS pp pp pp
0.0000000000000000e+00 1.0002500000000000e+01
0.0000000000000000e+00 1.2353714000000000e+01
0.0000000000000000e+00 1.0615024000000000e+01
ITEM: ATOMS id type xs ys zs
22 3 0.151832 0.0291107 0.10118
16 2 0.104955 0.133497 0.172267
28 3 0.166559 0.131729 0.304767
2 1 0.0870912 0.068542 0.443592
31 3 0.153124 0.23776 0.102277
7 1 0.353495 0.00722799 0.103878
3 1 0.357357 0.136485 0.34021
32 3 0.445961 0.134133 0.169159
25 3 0.156533 0.0330606 0.611914
11 1 0.160646 0.00471187 0.924431
30 3 0.159401 0.237711 0.619631
15 2 0.105272 0.135459 0.684137
17 3 0.153492 0.131243 0.823244
12 1 0.355155 0.0100136 0.598388
5 1 0.359168 0.133939 0.839568
23 3 0.44837 0.133911 0.673875
8 1 0.104865 0.376799 0.196128
27 3 0.203173 0.390368 0.35062
9 1 0.354237 0.261577 0.103425
18 3 0.409472 0.282277 0.420247
21 3 0.409474 0.383841 0.211799
13 2 0.356447 0.385507 0.351161
20 3 0.411168 0.489265 0.419707
10 1 0.160405 0.261127 0.923573
4 1 0.157099 0.384112 0.683932
29 3 0.0687588 0.385282 0.851087
6 1 0.352919 0.258562 0.596637
19 3 0.362646 0.281604 0.918952
26 3 0.363333 0.385608 0.711912
14 2 0.413684 0.384964 0.85029
24 3 0.36137 0.487596 0.920191
54 3 0.153027 0.531046 0.109751
48 2 0.100667 0.634315 0.178449
60 3 0.149957 0.634585 0.31788
34 1 0.104704 0.504462 0.426804
63 3 0.152968 0.738062 0.110106
39 1 0.354747 0.507026 0.105475
35 1 0.354306 0.633664 0.342371
64 3 0.446727 0.634476 0.174818
57 3 0.158175 0.531325 0.604291
43 1 0.158964 0.508818 0.926351
62 3 0.157948 0.737152 0.604866
47 2 0.105834 0.633961 0.673549
49 3 0.156192 0.633833 0.812319
44 1 0.358987 0.50914 0.597178
37 1 0.359542 0.633553 0.837186
55 3 0.450268 0.634176 0.67295
33 1 0.105969 0.76219 0.427023
40 1 0.106479 0.889086 0.193308
59 3 0.200512 0.882134 0.353824
41 1 0.354944 0.761101 0.105183
50 3 0.4092 0.780371 0.420272
53 3 0.407345 0.88484 0.213088
45 2 0.354745 0.884278 0.35234
52 3 0.408124 0.987429 0.421184
42 1 0.158706 0.758511 0.926071
36 1 0.157218 0.884504 0.684352
61 3 0.0686103 0.882305 0.850204
38 1 0.3585 0.758694 0.597937
51 3 0.361089 0.780083 0.919787
58 3 0.361908 0.883297 0.712199
46 2 0.413476 0.882891 0.850459
56 3 0.363093 0.986 0.919768
86 3 0.65626 0.0302965 0.108684
80 2 0.601319 0.133935 0.175108
92 3 0.648089 0.1339 0.315207
66 1 0.605395 0.010499 0.427748
95 3 0.656723 0.237132 0.108308
71 1 0.858888 0.00841908 0.103823
67 1 0.849101 0.137305 0.338028
96 3 0.948579 0.133897 0.175741
89 3 0.6565 0.0308621 0.606997
75 1 0.658484 0.0076229 0.925669
94 3 0.656829 0.237 0.607479
79 2 0.60405 0.134097 0.675868
81 3 0.654774 0.133568 0.81468
76 1 0.857248 0.0105329 0.602379
69 1 0.859008 0.133918 0.841799
87 3 0.948915 0.133874 0.679335
65 1 0.608194 0.260018 0.42704
72 1 0.606854 0.384268 0.186065
91 3 0.69345 0.388024 0.351137
73 1 0.858927 0.259999 0.104045
82 3 0.888117 0.275627 0.42141
85 3 0.903465 0.382211 0.214766
77 2 0.84963 0.381298 0.353299
84 3 0.904754 0.484287 0.422185
74 1 0.658964 0.259898 0.925442
68 1 0.657989 0.38368 0.686826
93 3 0.569726 0.385429 0.852463
70 1 0.862066 0.258276 0.599594
83 3 0.861289 0.281767 0.920645
90 3 0.860278 0.384589 0.713501
78 2 0.913081 0.384627 0.851239
88 3 0.861857 0.487744 0.92073
118 3 0.655524 0.531701 0.108453
112 2 0.602625 0.63483 0.176987
124 3 0.654229 0.635369 0.315744
98 1 0.606537 0.511182 0.425692
127 3 0.654876 0.738589 0.108985
103 1 0.857298 0.506498 0.105781
99 1 0.856982 0.633772 0.343824
1 3 0.944529 0.63444 0.176097
121 3 0.658079 0.531054 0.60468
107 1 0.660428 0.509487 0.925596
126 3 0.658027 0.736934 0.604401
111 2 0.606051 0.633985 0.673891
113 3 0.657669 0.634088 0.812142
108 1 0.858402 0.508269 0.59933
101 1 0.861473 0.63359 0.83766
119 3 0.949879 0.634027 0.671989
97 1 0.606978 0.758884 0.425941
104 1 0.607353 0.884906 0.188151
123 3 0.698142 0.885487 0.355716
105 1 0.857182 0.761916 0.105773
114 3 0.907054 0.785505 0.423585
117 3 0.904894 0.886737 0.215416
109 2 0.854099 0.888541 0.354441
116 3 0.901606 0.994351 0.421567
106 1 0.660317 0.758404 0.92566
100 1 0.657752 0.88377 0.686721
125 3 0.569428 0.882102 0.85158
102 1 0.858329 0.75912 0.599766
115 3 0.862027 0.779844 0.920504
122 3 0.859989 0.883284 0.713198
110 2 0.912901 0.882989 0.851026
120 3 0.861071 0.985667 0.920589
