ITEM: TIMESTEP
2493
ITEM: NUMBER OF ATOMS
127
ITEM: BOX BOUNDS pp pp pp
0.0000000000000000e+00 1.0002500000000000e+01
0.0000000000000000e+00 1.2353714000000000e+01
0.0000000000000000e+00 1.0615024000000000e+01
ITEM: ATOMS id type xs ys zs
22 3 0.15546 0.0335191 0.107271
16 2 0.10327 0.137793 0.175102
28 3 0.159146 0.144015 0.309751
32 3 0.446057 0.13352 0.174481
31 3 0.150551 0.241469 0.102346
7 1 0.355562 0.0067883 0.104186
3 1 0.350644 0.128293 0.34355
25 3 0.163738 0.0303401 0.620555
11 1 0.15846 0.0105308 0.924748
30 3 0.158058 0.237044 0.60826
15 2 0.106828 0.133986 0.67926
17 3 0.153042 0.139803 0.81984
12 1 0.355138 0.00868751 0.596848
5 1 0.35705 0.134003 0.837723
23 3 0.450153 0.133672 0.674284
8 1 0.105752 0.382859 0.189324
27 3 0.196919 0.384063 0.357767
9 1 0.352958 0.259172 0.105015
18 3 0.406042 0.280307 0.422386
21 3 0.402414 0.383126 0.214345
13 2 0.352516 0.383295 0.353928
20 3 0.405668 0.487527 0.421004
2 1 0.10661 0.252522 0.42929
10 1 0.15968 0.26359 0.924778
4 1 0.158613 0.383363 0.687293
29 3 0.068445 0.386737 0.851411
6 1 0.357075 0.257167 0.600652
19 3 0.363207 0.281626 0.920727
26 3 0.362178 0.384309 0.712965
14 2 0.413942 0.384521 0.851184
24 3 0.361876 0.487651 0.920086
54 3 0.153259 0.529934 0.109903
48 2 0.100405 0.633894 0.177657
60 3 0.149793 0.633448 0.317068
34 1 0.104358 0.509834 0.427514
63 3 0.153173 0.736892 0.109115
39 1 0.354445 0.506567 0.104529
35 1 0.353462 0.634509 0.341709
64 3 0.445193 0.632694 0.174165
57 3 0.157276 0.530686 0.60563
43 1 0.159327 0.50998 0.926022
62 3 0.157877 0.736625 0.604404
47 2 0.105696 0.634217 0.674255
49 3 0.156869 0.63454 0.812728
44 1 0.357547 0.509308 0.599438
37 1 0.360397 0.634747 0.837725
55 3 0.449787 0.633605 0.672939
33 1 0.103681 0.763518 0.426658
40 1 0.104106 0.892466 0.196455
59 3 0.203214 0.87708 0.349999
41 1 0.354335 0.760498 0.105191
50 3 0.410335 0.777204 0.419354
53 3 0.409388 0.882819 0.211356
45 2 0.356582 0.881233 0.35075
52 3 0.410167 0.984182 0.420004
42 1 0.159935 0.75984 0.926443
36 1 0.158831 0.884784 0.685476
61 3 0.0694843 0.88339 0.852675
38 1 0.358907 0.758602 0.597194
51 3 0.362296 0.780551 0.920754
58 3 0.364959 0.881726 0.7122
46 2 0.414013 0.88342 0.850944
56 3 0.361187 0.98667 0.918897
86 3 0.655245 0.0308616 0.108505
80 2 0.601792 0.133884 0.177269
92 3 0.652743 0.134019 0.315885
66 1 0.611029 0.00693504 0.425843
95 3 0.654094 0.237797 0.109183
71 1 0.857204 0.00859491 0.105218
67 1 0.862415 0.131007 0.344151
96 3 0.946914 0.135123 0.1747
89 3 0.657982 0.0303235 0.6071
75 1 0.660464 0.00923666 0.925607
94 3 0.657817 0.236533 0.605756
79 2 0.605909 0.133419 0.675383
81 3 0.657531 0.134459 0.813794
76 1 0.864558 0.00914251 0.59866
69 1 0.862607 0.134443 0.839127
87 3 0.95056 0.134186 0.674953
65 1 0.605471 0.256055 0.427307
72 1 0.60493 0.382205 0.188565
91 3 0.697176 0.382951 0.356097
73 1 0.856478 0.260329 0.104431
82 3 0.906209 0.280551 0.422003
85 3 0.903304 0.384123 0.21421
77 2 0.85302 0.383491 0.353471
84 3 0.904489 0.487755 0.42135
74 1 0.658975 0.259365 0.925897
68 1 0.658748 0.383244 0.686784
93 3 0.569816 0.384918 0.851705
70 1 0.859411 0.257339 0.600578
83 3 0.861092 0.282655 0.920524
90 3 0.861019 0.384654 0.712692
78 2 0.912686 0.385389 0.85095
88 3 0.860776 0.488502 0.919801
118 3 0.652537 0.527569 0.108737
112 2 0.601018 0.631723 0.176435
124 3 0.652062 0.630971 0.315277
98 1 0.604949 0.508764 0.426853
127 3 0.655022 0.734294 0.10763
103 1 0.855007 0.507046 0.104211
99 1 0.854769 0.634482 0.341866
1 3 0.944441 0.633459 0.174596
121 3 0.657341 0.530686 0.604915
107 1 0.659387 0.509099 0.925371
126 3 0.657897 0.73668 0.605064
111 2 0.605554 0.63381 0.674204
113 3 0.656741 0.633872 0.812566
108 1 0.857809 0.509728 0.599672
101 1 0.860604 0.634836 0.837899
119 3 0.949781 0.634167 0.673097
97 1 0.605327 0.754999 0.425633
104 1 0.605801 0.882513 0.18415
123 3 0.691608 0.876702 0.34869
105 1 0.856627 0.760876 0.104716
114 3 0.90298 0.780487 0.420324
117 3 0.902565 0.884462 0.213712
109 2 0.847632 0.883666 0.351898
116 3 0.885447 0.988317 0.421663
106 1 0.659937 0.75863 0.92552
100 1 0.658668 0.884489 0.687644
125 3 0.570078 0.883783 0.854005
102 1 0.858473 0.759595 0.599075
115 3 0.861612 0.780725 0.920729
122 3 0.861663 0.883633 0.713765
110 2 0.913755 0.883819 0.851758
120 3 0.862222 0.986871 0.921031
