ITEM: TIMESTEP
2493
ITEM: NUMBER OF ATOMS
127
ITEM: BOX BOUNDS pp pp pp
0.0000000000000000e+00 1.0002500000000000e+01
0.0000000000000000e+00 1.2353714000000000e+01
0.0000000000000000e+00 1.0615024000000000e+01
ITEM: ATOMS id type xs ys zs
22 3 0.151506 0.0287839 0.101685
16 2 0.104319 0.132984 0.173328
28 3 0.163616 0.129673 0.306763
2 1 0.0975218 0.038449 0.434747
31 3 0.153847 0.2372 0.103897
7 1 0.353189 0.00812913 0.104
3 1 0.355213 0.138245 0.341125
32 3 0.446047 0.134448 0.170637
25 3 0.15715 0.0326497 0.610511
11 1 0.160193 0.00489347 0.92454
30 3 0.16085 0.238564 0.621034
15 2 0.105608 0.135348 0.682139
17 3 0.153216 0.13011 0.821915
12 1 0.355965 0.0106311 0.599498
5 1 0.358139 0.134081 0.838889
23 3 0.448785 0.134246 0.674077
8 1 0.10453 0.376679 0.196302
27 3 0.203332 0.391014 0.350259
9 1 0.354628 0.261693 0.103418
18 3 0.409692 0.283018 0.420135
21 3 0.409559 0.384407 0.211571
13 2 0.356625 0.386166 0.350946
20 3 0.41107 0.490006 0.419502
10 1 0.159723 0.260013 0.923547
4 1 0.157689 0.384302 0.684727
29 3 0.0689087 0.385428 0.851768
6 1 0.353074 0.258901 0.596656
19 3 0.362224 0.281678 0.918771
26 3 0.364057 0.386159 0.711922
14 2 0.413841 0.385057 0.850434
24 3 0.361626 0.487712 0.920397
54 3 0.153305 0.531628 0.109715
48 2 0.100702 0.634709 0.17842
60 3 0.150133 0.635207 0.317829
34 1 0.10434 0.504651 0.42684
63 3 0.153098 0.738658 0.110396
39 1 0.354773 0.507339 0.105415
35 1 0.354139 0.633689 0.342221
64 3 0.44637 0.634995 0.174763
57 3 0.158224 0.531657 0.604259
43 1 0.159246 0.508819 0.926527
62 3 0.157733 0.737502 0.605172
47 2 0.105798 0.634139 0.673748
49 3 0.15632 0.633913 0.812455
44 1 0.35909 0.509326 0.597085
37 1 0.359741 0.633507 0.837241
55 3 0.45015 0.634411 0.672856
33 1 0.105807 0.761378 0.427285
40 1 0.106531 0.888119 0.191585
59 3 0.198223 0.885955 0.356834
41 1 0.354898 0.761322 0.10496
50 3 0.406657 0.781148 0.420469
53 3 0.404474 0.885273 0.213792
45 2 0.353386 0.885564 0.35328
52 3 0.40784 0.988332 0.421739
42 1 0.158839 0.758523 0.926119
36 1 0.157859 0.884831 0.685637
61 3 0.0685555 0.882119 0.850634
38 1 0.358108 0.758798 0.598528
51 3 0.361257 0.78018 0.919864
58 3 0.362104 0.883469 0.712403
46 2 0.413622 0.883082 0.850699
56 3 0.363086 0.986113 0.920052
86 3 0.655536 0.0302885 0.108872
80 2 0.601557 0.134124 0.175732
92 3 0.649645 0.134085 0.315363
66 1 0.605447 0.0114257 0.427738
95 3 0.6564 0.237211 0.108255
71 1 0.858217 0.00855337 0.10392
67 1 0.853866 0.137848 0.340349
96 3 0.947921 0.133933 0.175189
89 3 0.656674 0.0311126 0.606724
75 1 0.658598 0.00797863 0.925752
94 3 0.657184 0.237245 0.607436
79 2 0.604483 0.134373 0.675828
81 3 0.65545 0.133617 0.814523
76 1 0.857598 0.0112118 0.602058
69 1 0.860228 0.13402 0.840955
87 3 0.949323 0.13402 0.678034
65 1 0.609161 0.260598 0.426702
72 1 0.606549 0.384737 0.185324
91 3 0.692512 0.389595 0.35009
73 1 0.858415 0.260133 0.104294
82 3 0.886473 0.277528 0.421561
85 3 0.90307 0.38299 0.214414
77 2 0.848633 0.382757 0.352769
84 3 0.904019 0.485768 0.421499
74 1 0.659365 0.259684 0.925435
68 1 0.658183 0.383667 0.687027
93 3 0.569891 0.385298 0.85301
70 1 0.863336 0.25844 0.599155
83 3 0.861477 0.281818 0.92075
90 3 0.860706 0.384723 0.71359
78 2 0.913222 0.384733 0.851417
88 3 0.861691 0.487851 0.920757
118 3 0.655497 0.532603 0.108292
112 2 0.602259 0.63552 0.176947
124 3 0.653607 0.636237 0.315756
98 1 0.606198 0.511987 0.425712
127 3 0.65423 0.739451 0.109068
103 1 0.857175 0.506979 0.10551
99 1 0.856479 0.633902 0.343528
1 3 0.944648 0.634807 0.175869
121 3 0.658042 0.531253 0.604787
107 1 0.66036 0.509648 0.925594
126 3 0.657769 0.737171 0.604372
111 2 0.605933 0.634178 0.673921
113 3 0.65746 0.634306 0.812184
108 1 0.858399 0.508404 0.599242
101 1 0.861294 0.633579 0.837653
119 3 0.949869 0.634151 0.672212
97 1 0.606007 0.759311 0.426214
104 1 0.606456 0.885444 0.188357
123 3 0.697831 0.8856 0.355936
105 1 0.856679 0.761875 0.105336
114 3 0.906432 0.783986 0.422884
117 3 0.904515 0.886098 0.21505
109 2 0.853708 0.887282 0.354092
116 3 0.903366 0.992028 0.421775
106 1 0.66019 0.758617 0.925645
100 1 0.657965 0.88412 0.686781
125 3 0.569536 0.882359 0.8517
102 1 0.858176 0.759034 0.599773
115 3 0.861747 0.779826 0.920315
122 3 0.86028 0.883453 0.713045
110 2 0.912822 0.883003 0.851005
120 3 0.861014 0.985652 0.920605
