ITEM: TIMESTEP
2493
ITEM: NUMBER OF ATOMS
127
ITEM: BOX BOUNDS pp pp pp
0.0000000000000000e+00 1.0002500000000000e+01
0.0000000000000000e+00 1.2353714000000000e+01
0.0000000000000000e+00 1.0615024000000000e+01
ITEM: ATOMS id type xs ys zs
22 3 0.152727 0.0294791 0.101496
16 2 0.105293 0.133814 0.171753
28 3 0.168382 0.134835 0.303586
2 1 0.085384 0.176681 0.448847
31 3 0.15195 0.238263 0.10089
7 1 0.354024 0.00598951 0.103525
3 1 0.358601 0.131989 0.33968
32 3 0.445964 0.133476 0.168522
25 3 0.158189 0.0307743 0.617714
11 1 0.160722 0.00572271 0.923721
30 3 0.156073 0.23426 0.612351
15 2 0.105047 0.132335 0.685146
17 3 0.153908 0.135401 0.823749
12 1 0.353089 0.00905916 0.596725
5 1 0.359774 0.133579 0.839908
23 3 0.448195 0.133653 0.673802
8 1 0.106201 0.377826 0.194267
27 3 0.20149 0.386987 0.352656
9 1 0.353601 0.260629 0.103823
18 3 0.408369 0.280484 0.420939
21 3 0.408339 0.382812 0.212756
13 2 0.355285 0.383764 0.351967
20 3 0.410137 0.487499 0.420192
10 1 0.160858 0.262748 0.924333
4 1 0.156806 0.383051 0.683627
29 3 0.0686437 0.385007 0.850033
6 1 0.354655 0.257727 0.597833
19 3 0.363081 0.281465 0.919638
26 3 0.361797 0.384228 0.71212
14 2 0.4134 0.384619 0.850351
24 3 0.361029 0.487383 0.919776
54 3 0.152895 0.529709 0.109959
48 2 0.100635 0.633355 0.178436
60 3 0.149856 0.633188 0.317882
34 1 0.105797 0.504872 0.426905
63 3 0.15292 0.736724 0.109767
39 1 0.35487 0.506452 0.105295
35 1 0.354305 0.63377 0.342418
64 3 0.446799 0.633259 0.174811
57 3 0.157994 0.530479 0.60471
43 1 0.158648 0.5089 0.926055
62 3 0.158119 0.736308 0.604347
47 2 0.10582 0.633571 0.673472
49 3 0.156131 0.633645 0.812265
44 1 0.35861 0.5088 0.597708
37 1 0.359451 0.633831 0.837186
55 3 0.45028 0.633421 0.673008
33 1 0.104921 0.763002 0.426776
40 1 0.105102 0.890541 0.195948
59 3 0.20298 0.877557 0.350905
41 1 0.35473 0.760587 0.105483
50 3 0.411123 0.778606 0.419846
53 3 0.409371 0.883901 0.211979
45 2 0.356262 0.882324 0.351318
52 3 0.409294 0.985591 0.420364
42 1 0.158814 0.758615 0.926239
36 1 0.156752 0.883623 0.6834
61 3 0.0687166 0.882309 0.850656
38 1 0.358886 0.758402 0.597268
51 3 0.361223 0.779906 0.920057
58 3 0.362776 0.882238 0.711945
46 2 0.413551 0.882555 0.850246
56 3 0.36282 0.985877 0.919123
86 3 0.656851 0.0303304 0.10834
80 2 0.601257 0.133599 0.174843
92 3 0.647453 0.133628 0.315131
66 1 0.607682 0.00786837 0.427208
95 3 0.656577 0.237135 0.108564
71 1 0.859137 0.00759465 0.104024
67 1 0.847422 0.131187 0.337205
96 3 0.948964 0.133586 0.176107
89 3 0.656644 0.0305265 0.607492
75 1 0.658766 0.00743252 0.925476
94 3 0.656469 0.236679 0.607166
79 2 0.603886 0.133489 0.675883
81 3 0.654458 0.133839 0.814765
76 1 0.861118 0.00922348 0.600048
69 1 0.858316 0.133599 0.842257
87 3 0.948667 0.133645 0.68021
65 1 0.605785 0.257584 0.427673
72 1 0.607554 0.382884 0.187907
91 3 0.697738 0.382617 0.355142
73 1 0.859141 0.259181 0.103891
82 3 0.899605 0.272281 0.421446
85 3 0.904853 0.380629 0.215482
77 2 0.853817 0.378496 0.354516
84 3 0.906979 0.48157 0.423679
74 1 0.658468 0.259966 0.925621
68 1 0.657752 0.383756 0.686679
93 3 0.569372 0.38542 0.851537
70 1 0.857794 0.257408 0.602048
83 3 0.861098 0.281757 0.920597
90 3 0.859875 0.384264 0.713282
78 2 0.912935 0.384451 0.851034
88 3 0.862148 0.48759 0.920585
118 3 0.65508 0.529386 0.108864
112 2 0.6027 0.633034 0.176968
124 3 0.65439 0.63266 0.315705
98 1 0.607212 0.508943 0.425808
127 3 0.655444 0.736286 0.108519
103 1 0.857314 0.505579 0.105955
99 1 0.857104 0.633694 0.343892
1 3 0.944462 0.633264 0.176143
121 3 0.658067 0.530616 0.604446
107 1 0.660363 0.509124 0.925631
126 3 0.658065 0.736488 0.604624
111 2 0.606068 0.633556 0.673887
113 3 0.65773 0.633486 0.812133
108 1 0.858359 0.508274 0.59967
101 1 0.861529 0.63381 0.837665
119 3 0.949855 0.633511 0.671922
97 1 0.60673 0.756774 0.425679
104 1 0.607054 0.883466 0.186534
123 3 0.694223 0.880513 0.351906
105 1 0.857331 0.761224 0.105918
114 3 0.905251 0.784019 0.422602
117 3 0.903767 0.885694 0.214991
109 2 0.850431 0.887039 0.353648
116 3 0.889728 0.992959 0.421395
106 1 0.660436 0.758047 0.925587
100 1 0.657908 0.883725 0.68674
125 3 0.569582 0.881968 0.852127
102 1 0.858389 0.759205 0.599379
115 3 0.862003 0.779752 0.920715
122 3 0.860059 0.882911 0.713466
110 2 0.913029 0.882877 0.851158
120 3 0.861216 0.985692 0.920626
