ITEM: TIMESTEP
2493
ITEM: NUMBER OF ATOMS
127
ITEM: BOX BOUNDS pp pp pp
0.0000000000000000e+00 1.0002500000000000e+01
0.0000000000000000e+00 1.2353714000000000e+01
0.0000000000000000e+00 1.0615024000000000e+01
ITEM: ATOMS id type xs ys zs
22 3 0.152197 0.0292596 0.100757
16 2 0.105648 0.133718 0.171421
28 3 0.170452 0.133718 0.302453
2 1 0.0922614 0.133718 0.455639
31 3 0.152197 0.238177 0.100757
7 1 0.353736 0.00628779 0.103719
3 1 0.360417 0.133718 0.338755
32 3 0.446073 0.133718 0.167807
25 3 0.155723 0.0329474 0.613318
11 1 0.161064 0.00492923 0.924126
30 3 0.155723 0.23449 0.613319
15 2 0.104397 0.133719 0.686214
17 3 0.154784 0.133719 0.823952
12 1 0.353836 0.00931499 0.597138
5 1 0.360575 0.133719 0.840331
23 3 0.447899 0.133719 0.673756
8 1 0.105501 0.377165 0.195491
27 3 0.20247 0.388789 0.351561
9 1 0.353736 0.261149 0.103719
18 3 0.408814 0.281117 0.420632
21 3 0.409079 0.383112 0.212331
13 2 0.355858 0.384476 0.351594
20 3 0.410871 0.488134 0.420067
10 1 0.161064 0.262508 0.924126
4 1 0.15627 0.383236 0.682726
29 3 0.0686932 0.384825 0.849962
6 1 0.353836 0.258122 0.597138
19 3 0.363016 0.281505 0.919451
26 3 0.361763 0.384465 0.712022
14 2 0.413309 0.384731 0.850221
24 3 0.360974 0.487434 0.91981
54 3 0.152835 0.530206 0.109789
48 2 0.100596 0.633718 0.178391
60 3 0.149783 0.633718 0.317847
34 1 0.105236 0.504518 0.426726
63 3 0.152835 0.737231 0.109789
39 1 0.354724 0.506619 0.105419
35 1 0.354268 0.633718 0.342433
64 3 0.446792 0.633718 0.174759
57 3 0.158004 0.530797 0.604459
43 1 0.15858 0.508826 0.926054
62 3 0.158004 0.73664 0.604459
47 2 0.105767 0.633719 0.673388
49 3 0.156064 0.633719 0.812191
44 1 0.358702 0.508888 0.597457
37 1 0.359339 0.633719 0.837203
55 3 0.450249 0.633719 0.673086
33 1 0.105236 0.762919 0.426726
40 1 0.105501 0.890272 0.19549
59 3 0.20247 0.878647 0.351561
41 1 0.354724 0.760818 0.105419
50 3 0.410871 0.779303 0.420067
53 3 0.409079 0.884325 0.212331
45 2 0.355858 0.882961 0.351594
52 3 0.408814 0.98632 0.420632
42 1 0.15858 0.758611 0.926054
36 1 0.15627 0.884202 0.682726
61 3 0.0686932 0.882613 0.849962
38 1 0.358702 0.758549 0.597457
51 3 0.360974 0.780003 0.91981
58 3 0.361763 0.882972 0.712022
46 2 0.413309 0.882706 0.850221
56 3 0.363016 0.985933 0.919451
86 3 0.656952 0.0303145 0.108367
80 2 0.601335 0.133718 0.174589
92 3 0.646962 0.133718 0.315027
66 1 0.606957 0.00870721 0.427418
95 3 0.656952 0.237122 0.108367
71 1 0.859325 0.00793917 0.104126
67 1 0.847119 0.133718 0.337215
96 3 0.949418 0.133718 0.176578
89 3 0.656332 0.0306311 0.607488
75 1 0.65848 0.0072926 0.925562
94 3 0.656332 0.236806 0.607488
79 2 0.603636 0.133719 0.675927
81 3 0.653964 0.133719 0.814917
76 1 0.859354 0.00950079 0.601015
69 1 0.857312 0.133719 0.842994
87 3 0.948137 0.133719 0.681895
65 1 0.606957 0.25873 0.427418
72 1 0.607379 0.383487 0.187211
91 3 0.695662 0.385055 0.353277
73 1 0.859325 0.259498 0.104126
82 3 0.893311 0.273001 0.421547
85 3 0.904283 0.381079 0.215359
77 2 0.851869 0.379185 0.354197
84 3 0.906051 0.48226 0.423225
74 1 0.65848 0.260145 0.925562
68 1 0.65784 0.38377 0.686628
93 3 0.569305 0.385516 0.851566
70 1 0.859354 0.257936 0.601015
83 3 0.861103 0.281764 0.920662
90 3 0.859797 0.384411 0.713391
78 2 0.912968 0.384453 0.851043
88 3 0.862287 0.487623 0.920652
118 3 0.655244 0.530277 0.108567
112 2 0.602701 0.633718 0.176881
124 3 0.654432 0.633718 0.315596
98 1 0.60703 0.50987 0.425669
127 3 0.655244 0.73716 0.108567
103 1 0.857344 0.50581 0.106058
99 1 0.857117 0.633718 0.343909
1 3 0.944404 0.633718 0.176129
121 3 0.658012 0.530783 0.60454
107 1 0.660438 0.509243 0.925549
126 3 0.658012 0.736654 0.60454
111 2 0.606049 0.633719 0.673896
113 3 0.657774 0.633719 0.812128
108 1 0.858332 0.508228 0.599458
101 1 0.861579 0.633719 0.837661
119 3 0.949803 0.633719 0.671876
97 1 0.60703 0.757567 0.425669
104 1 0.607379 0.88395 0.187211
123 3 0.695662 0.882382 0.353277
105 1 0.857344 0.761627 0.106058
114 3 0.906051 0.785177 0.423225
117 3 0.904283 0.886358 0.215359
109 2 0.851869 0.888252 0.354197
116 3 0.893311 0.994436 0.421547
106 1 0.660438 0.758195 0.925549
100 1 0.65784 0.883668 0.686628
125 3 0.569305 0.881921 0.851566
102 1 0.858332 0.759209 0.599458
115 3 0.862287 0.779814 0.920652
122 3 0.859797 0.883027 0.71339
110 2 0.912968 0.882984 0.851043
120 3 0.861103 0.985674 0.920662
