# LAMMPS data file written by OVITO Basic 3.5.0
127 atoms
3 atom types
0.0 10.0025 xlo xhi
0.0 12.353714 ylo yhi
0.0 10.615024 zlo zhi

Masses

1 7.01
2 30.974
3 16.0

Atoms  # atomic

22 3 1.50653 0.293688 1.10484 
16 2 1.03085 1.58133 1.86317 
28 3 1.57074 1.51443 3.29975 
2 1 1.05084 0.162029 4.55905 
25 3 1.57843 0.385279 6.4657 
11 1 1.60179 0.097223 9.82663 
31 3 1.56831 2.86085 1.1378 
30 3 1.63563 2.94292 6.57426 
15 2 1.06645 1.66693 7.20691 
17 3 1.52761 1.61594 8.70094 
8 1 1.0287 4.60527 2.08468 
10 1 1.59998 3.20557 9.82507 
27 3 2.00843 4.79497 3.72238 
4 1 1.5992 4.73305 7.29257 
29 3 0.70546 4.7724 9.06449 
54 3 1.53323 6.51372 1.17057 
48 2 1.0118 7.79458 1.88671 
60 3 1.49665 7.80706 3.3692 
34 1 1.02553 6.20456 4.54452 
57 3 1.57585 6.56639 6.43926 
43 1 1.60495 6.30132 9.8406 
63 3 1.55482 9.06983 1.16092 
33 1 1.04456 9.33822 4.5402 
62 3 1.5821 9.11337 6.43604 
47 2 1.05699 7.8403 7.16881 
49 3 1.56032 7.85161 8.6419 
40 1 1.04819 10.8891 2.00012 
42 1 1.60972 9.39503 9.83801 
59 3 1.9582 10.8904 3.78465 
36 1 1.60642 10.9374 7.31609 
61 3 0.700585 10.9218 9.05659 
7 1 3.52986 0.0844651 1.11136 
12 1 3.57163 0.139839 6.36066 
3 1 3.49014 1.70844 3.63652 
32 3 4.46184 1.63398 1.84964 
5 1 3.57547 1.68143 8.88048 
23 3 4.50139 1.66772 7.14496 
9 1 3.56248 3.19788 1.09973 
18 3 4.08798 3.48139 4.45421 
6 1 3.54685 3.20483 6.3281 
19 3 3.62512 3.49543 9.76034 
21 3 4.06948 4.72824 2.24206 
13 2 3.54263 4.75073 3.72224 
20 3 4.07899 6.03855 4.44788 
26 3 3.66423 4.77286 7.55775 
14 2 4.15198 4.76821 9.0314 
24 3 3.62821 6.04261 9.76152 
39 1 3.54292 6.23951 1.11229 
44 1 3.58705 6.29626 6.34073 
35 1 3.53533 7.80694 3.61609 
64 3 4.45835 7.81572 1.8407 
37 1 3.60664 7.84831 8.89097 
55 3 4.4994 7.84553 7.14284 
41 1 3.56054 9.37356 1.09692 
50 3 4.0528 9.62319 4.46035 
38 1 3.58364 9.38149 6.35937 
51 3 3.62945 9.66627 9.76708 
53 3 4.01589 10.8989 2.2615 
45 2 3.51467 10.9052 3.74271 
52 3 4.04334 12.1832 4.46472 
58 3 3.65034 10.9305 7.5631 
46 2 4.1538 10.9394 9.03526 
56 3 3.63469 12.2126 9.76152 
86 3 6.5357 0.323373 1.17462 
80 2 6.01919 1.61414 1.88828 
92 3 6.52117 1.61898 3.3619 
66 1 6.04501 0.108012 4.5445 
89 3 6.57729 0.383215 6.44692 
75 1 6.59802 0.133703 9.8394 
95 3 6.56744 2.87863 1.15198 
65 1 6.09504 3.18719 4.528 
94 3 6.59281 2.93276 6.44537 
79 2 6.05928 1.66568 7.17288 
81 3 6.56254 1.66931 8.64685 
72 1 6.04158 4.70128 1.97027 
74 1 6.61159 3.2159 9.83504 
91 3 6.90355 4.79299 3.71309 
68 1 6.61091 4.73492 7.31411 
93 3 5.71259 4.7666 9.07112 
118 3 6.54575 6.52768 1.16245 
112 2 6.01661 7.80628 1.87914 
124 3 6.51316 7.82238 3.35732 
98 1 6.03667 6.29278 4.53912 
121 3 6.57914 6.56235 6.44552 
107 1 6.60484 6.30977 9.83531 
127 3 6.55427 9.08081 1.15325 
97 1 6.04787 9.34071 4.53707 
126 3 6.58484 9.10935 6.43139 
111 2 6.05763 7.84011 7.1694 
113 3 6.56022 7.85403 8.64171 
104 1 6.04442 10.8821 1.9957 
106 1 6.61012 9.39711 9.83469 
123 3 6.96033 10.8935 3.77266 
100 1 6.61124 10.9316 7.3142 
125 3 5.71288 10.9355 9.06029 
71 1 8.56077 0.0776502 1.10566 
76 1 8.59999 0.138481 6.36155 
67 1 8.62262 1.68385 3.63924 
96 3 9.47004 1.62479 1.84071 
69 1 8.62505 1.67855 8.89544 
87 3 9.50618 1.66221 7.15661 
73 1 8.57911 3.18709 1.10389 
82 3 8.8682 3.44112 4.46697 
70 1 8.65526 3.20538 6.34364 
83 3 8.62569 3.49861 9.77411 
85 3 9.00665 4.71895 2.26001 
77 2 8.4658 4.72807 3.73018 
84 3 9.01222 6.01019 4.45012 
90 3 8.6441 4.76014 7.56871 
78 2 9.15044 4.76855 9.03847 
88 3 8.62274 6.04502 9.76082 
103 1 8.56208 6.24205 1.10726 
108 1 8.59011 6.29176 6.3518 
99 1 8.54704 7.81111 3.61485 
1 3 9.45471 7.81352 1.84321 
101 1 8.61001 7.84977 8.89194 
119 3 9.50005 7.84457 7.14427 
105 1 8.56853 9.37205 1.09341 
114 3 9.04736 9.62206 4.46171 
102 1 8.58868 9.3795 6.35991 
115 3 8.62163 9.66058 9.76488 
117 3 9.02044 10.8935 2.25946 
109 2 8.51915 10.9033 3.73864 
116 3 9.04153 12.1823 4.46079 
122 3 8.64264 10.928 7.56087 
110 2 9.14534 10.9333 9.0334 
120 3 8.61753 12.2044 9.75992 
