LAMMPS (12 Dec 2018)
Running on 8 partitions of processors
Step MaxReplicaForce MaxAtomForce GradV0 GradV1 GradVc EBF EBR RDT RD1 PE1 RD2 PE2 ... RDN PEN
0    13.464504    8.8391963   0.28335175    4.4314218    13.513401    2.3685039    1.9100647    2.9560438            0   -796.68154   0.14285714    -796.3429   0.28571429   -795.40979   0.42857143   -794.41127   0.57142857   -794.31304   0.71428571   -795.12829   0.85714286   -795.93409            1    -796.2231 
1    13.464504    8.8391963   0.28335175    4.4314218    13.513401    2.3685039    1.9100647    2.9560438            0   -796.68154   0.14285714    -796.3429   0.28571429   -795.40979   0.42857143   -794.41127   0.57142857   -794.31304   0.71428571   -795.12829   0.85714286   -795.93409            1    -796.2231 
2    12.279519    8.1160688   0.28298402    4.2117601    12.323879     2.208227    1.7674404     2.956132            0   -796.68162    0.1428533   -796.34842    0.2857158   -795.46167   0.42858142   -794.56791   0.57143691   -794.47339   0.71430227   -795.19151   0.85716429   -795.95563            1   -796.24083 
3    10.186297    6.8355052   0.28220535    3.7738699    10.222881    1.9328175    1.5255343    2.9571511            0   -796.68178   0.14280116   -796.35958   0.28565171   -795.55937   0.42862078   -794.83605   0.57144951   -794.74896   0.71440412   -795.31067   0.85725288   -795.99703            1    -796.2745 
4    7.7422154    5.3193564   0.28091499    3.1497453    7.7704507     1.621664    1.2588293    2.9604244            0   -796.68205   0.14262011   -796.37637   0.28540399   -795.68805   0.42872003    -795.1372   0.57146926   -795.06039   0.71470988   -795.46735   0.85749009   -796.05346            1   -796.31922 
5    5.4888412    3.8784648   0.27891746    2.4426418    5.5104738    1.3434868    1.0282257    2.9671049            0   -796.68248   0.14222584   -796.39832   0.28490039   -795.82584    0.4289015   -795.40524     0.571512     -795.339   0.71529079   -795.63333   0.85795921   -796.11661            1   -796.36722 
6    3.7278042    2.6821943   0.27586668    1.8542446    3.7449472    1.1297716   0.85806811    2.9778246            0   -796.68315   0.14156252   -796.42407    0.2841776   -795.95075   0.42916432   -795.61173   0.57158673   -795.55338   0.71610026   -795.78008   0.85870423   -796.17769            1   -796.41145 
7    2.5536562    1.7723398   0.27127796    1.5040002    2.5677947   0.97937101   0.74690451    2.9925904            0   -796.68415   0.14065229   -796.45104   0.28336161   -796.04924   0.42947243    -795.7576   0.57167083   -795.70478   0.71696968   -795.89423   0.85964979   -796.23362            1   -796.45168 
8    1.8066273    1.1330102   0.26475425    1.2631949    1.8194119   0.87532751   0.68110525     3.010535            0   -796.68555   0.13964957   -796.47566   0.28260466   -796.11913   0.42973697   -795.85734    0.5716961   -795.81022   0.71764958   -795.97943   0.86052112   -796.28537            1   -796.49133 
9    1.3013931   0.70144774   0.25597575    1.0612787    1.3144126   0.80292589   0.64595026    3.0309458            0    -796.6874   0.13874001   -796.49585     0.281975   -796.16664   0.42985006   -795.92528   0.57156674   -795.88447   0.71795452   -796.04375   0.86101772   -796.33283            1   -796.53042 
10    0.9774118   0.39799664    0.2447449   0.88767603   0.97383201   0.75313539   0.63077949    3.0530037            0    -796.6897   0.13806278   -796.51148     0.281502    -796.1989    0.4297396   -795.97107   0.57123347   -795.93657     0.717798    -796.0933   0.86096448    -796.3753            1   -796.56735 
11   0.81542037   0.28633971   0.23119085   0.76140783   0.83094859   0.71974259   0.62747451    3.0755941            0    -796.6924   0.13768096   -796.52341   0.28121758   -796.22155    0.4293517   -796.00159   0.57066858   -795.97266   0.71710108   -796.13205   0.86029905   -796.41195            1   -796.60013 
12    1.5004125   0.53595683   0.21780862   0.96897662    1.5090738   0.70739413   0.63421267    3.0948969            0   -796.69498   0.13757172   -796.53143   0.28111801   -796.23526   0.42883621   -796.01332   0.57004868   -795.98759   0.71612699   -796.15629   0.85935054   -796.43634            1    -796.6218 
13   0.70597178   0.24979359   0.21587884   0.64659024   0.72377559   0.69599581    0.6280192    3.0969087            0   -796.69534   0.13758513   -796.53272   0.28112998   -796.23878    0.4287244   -796.02385   0.56993652   -795.99934   0.71592185    -796.1627   0.85917975    -796.4421            1   -796.62736 
14   0.62326737   0.22744186   0.21294127   0.58363679   0.59506631   0.69166308   0.62768804    3.1005448            0   -796.69589    0.1375867   -796.53426   0.28113275   -796.24171   0.42857695   -796.02795   0.56977836   -796.00423    0.7156463   -796.16789   0.85893809   -796.44713            1   -796.63191 
15   0.60223487   0.21877681   0.20982484   0.56275004    0.5745987   0.68807557   0.62782846    3.1043553            0   -796.69647   0.13759433    -796.5358    0.2811422   -796.24451   0.42842546   -796.03146   0.56961654   -796.00839   0.71535899   -796.17275    0.8586855   -796.45192            1   -796.63622 
16   0.58078541    0.2084617   0.20644965   0.54148779   0.55584165   0.68440939   0.62796681    3.1084838            0   -796.69709   0.13760747   -796.53741   0.28115565   -796.24742   0.42826038   -796.03508   0.56943848   -796.01268   0.71504248   -796.17777   0.85840991   -796.45685            1   -796.64065 
17   0.55875713   0.19807483   0.20281459   0.51960319   0.53696378   0.68068062   0.62808521    3.1129229            0   -796.69775   0.13762738   -796.53907   0.28117408   -796.25043   0.42808241    -796.0388   0.56924482   -796.01707   0.71469724   -796.18291   0.85811221   -796.46189            1   -796.64516 
18   0.53629387   0.18720175   0.19892269   0.49725314   0.51798931   0.67691844   0.62817459    3.1176714            0   -796.69846   0.13765485   -796.54079   0.28119782   -796.25352   0.42789184    -796.0426   0.56903539   -796.02154   0.71432331   -796.18813   0.85779317   -796.46699            1   -796.64971 
19   0.51354101   0.17617901   0.19477839   0.47460577   0.49902955   0.67315063   0.62822678    3.1227243            0    -796.6992    0.1376908   -796.54254   0.28122726   -796.25667   0.42768942   -796.04645   0.56881052   -796.02605   0.71392155   -796.19338   0.85745416    -796.4721            1   -796.65427 
20   0.49062915   0.16493494   0.19038728   0.45182503   0.48018413   0.66940271   0.62823452     3.128078            0   -796.69997   0.13773601   -796.54433   0.28126262   -796.25986   0.42747597   -796.05034   0.56857052   -796.03057   0.71349305   -796.19865   0.85709676   -796.47719            1    -796.6588 
21   0.46767805   0.15370099   0.18575635   0.42905988   0.46154299   0.66569784   0.62819186    3.1337275            0   -796.70077   0.13779132   -796.54614   0.28130407   -796.26309   0.42725259   -796.05424     0.568316   -796.03507   0.71303949   -796.20388   0.85672298   -796.48223            1   -796.66327 
22   0.44479429   0.14242327   0.18089414   0.40644391   0.44317849   0.66205685   0.62809445    3.1396685            0    -796.7016   0.13785747   -796.54797   0.28135165   -796.26632   0.42702049   -796.05813   0.56804761   -796.03955   0.71256285   -796.20905     0.856335   -796.48717            1   -796.66764 
23   0.42207138   0.13137559   0.17581069   0.38409527   0.42516867   0.65849842   0.62793972    3.1458949            0   -796.70246   0.13793525    -796.5498   0.28140538   -796.26956   0.42678117     -796.062   0.56776632   -796.04396   0.71206567   -796.21413   0.85593536     -796.492            1    -796.6719 
24   0.39959518   0.12037307   0.17051771   0.36212279   0.40762082   0.65503943   0.62772711    3.1524019            0   -796.70334   0.13802535   -796.55164   0.28146513   -796.27279   0.42653617   -796.06583   0.56747307    -796.0483    0.7115507   -796.21911   0.85552668   -796.49669            1   -796.67602 
25   0.37747903     0.109969   0.16503003   0.34063358    0.3909376   0.65169661   0.62745903    3.1591797            0   -796.70423   0.13812849   -796.55346   0.28153083   -796.27599    0.4262874    -796.0696   0.56716938   -796.05253   0.71102149   -796.22395   0.85511201   -796.50121            1   -796.67999 
26   0.35609782  0.099327087   0.15937242   0.31982569    0.3774296   0.64849623   0.62714701    3.1662139            0   -796.70513   0.13824492   -796.55527   0.28160189   -796.27915   0.42603691   -796.07328   0.56685677   -796.05663   0.71048218   -796.22864   0.85469475   -796.50555            1   -796.68378 
27   0.34406094  0.090696969   0.15362823   0.30068614   0.38398521   0.64554358   0.62685937    3.1734091            0   -796.70603    0.1383736   -796.55703   0.28167677   -796.28219   0.42579015   -796.07676   0.56654127   -796.06049   0.70994413   -796.23311   0.85428339   -796.50965            1   -796.68735 
28   0.46092467   0.13424156   0.14829682   0.28890901   0.49169496   0.64343783   0.62699371    3.1801996            0   -796.70685   0.13849968    -796.5586   0.28174165   -796.28479   0.42556875   -796.07937   0.56624816   -796.06341     0.709458   -796.23696   0.85391522   -796.51319            1   -796.69041 
29   0.44977238   0.18037676   0.14544045   0.27917781   0.48150227   0.64207963   0.62676064    3.1837818            0   -796.70728   0.13857197   -796.55942   0.28176841   -796.28623   0.42545301   -796.08102   0.56609333    -796.0652   0.70921007   -796.23897   0.85372711     -796.515            1   -796.69196 
30   0.31268383  0.080721503   0.14454207   0.27096211   0.35667161    0.6411538   0.62619012    3.1848562            0   -796.70742   0.13859698   -796.55967   0.28177991   -796.28683    0.4254144   -796.08206   0.56604453   -796.06626   0.70912904   -796.23966   0.85366654   -796.51558            1   -796.69245 
31   0.29961075   0.07895309   0.14341518   0.26661867   0.33218594   0.64057161   0.62603105    3.1862709            0   -796.70759   0.13862632   -796.55999   0.28179529    -796.2874   0.42536889   -796.08276   0.56598397   -796.06702   0.70902908   -796.24044     0.853593   -796.51628            1   -796.69305 
32   0.29539581  0.077614191   0.14215593   0.26273896   0.32829383    0.6400103   0.62593123    3.1878638            0   -796.70778   0.13865934   -796.56035   0.28181291   -796.28801   0.42531882   -796.08346   0.56591663   -796.06777   0.70891807   -796.24128    0.8535116   -796.51704            1    -796.6937 
33    0.2909269  0.076156048   0.14077843   0.25857985   0.32499895   0.63940886   0.62582392    3.1896122            0   -796.70798   0.13869607   -796.56073   0.28183241   -796.28867   0.42526453   -796.08421   0.56584315   -796.06857   0.70879726    -796.2422   0.85342315   -796.51786            1    -796.6944 
34   0.28612508  0.074592749   0.13928481   0.25411941   0.32147878   0.63876784    0.6257064    3.1915154            0    -796.7082   0.13873663   -796.56114   0.28185377   -796.28938    0.4252062   -796.08501   0.56576365   -796.06944     0.708667   -796.24318   0.85332792   -796.51874            1   -796.69514 
35   0.28100635  0.072931625   0.13767717   0.24937402   0.31774175   0.63809058   0.62557859    3.1935727            0   -796.70844   0.13878111   -796.56158   0.28187699   -796.29013   0.42514403   -796.08586    0.5656783   -796.07035   0.70852766   -796.24421   0.85322622   -796.51967            1   -796.69593 
36   0.27558785  0.071179272   0.13595778    0.2443612   0.31380392    0.6373806    0.6254405    3.1957832            0   -796.70869   0.13882964   -796.56204   0.28190209   -796.29093   0.42507826   -796.08676   0.56558728   -796.07131   0.70837968   -796.24531   0.85311839   -796.52064            1   -796.69675 
37   0.26988744  0.069342607   0.13412884   0.23909938   0.30968215   0.63664149   0.62529213    3.1981459            0   -796.70896   0.13888233   -796.56253   0.28192908   -796.29177   0.42500914    -796.0877    0.5654908   -796.07232    0.7082235   -796.24645   0.85300479   -796.52166            1   -796.69761 
38   0.26392357  0.067428785   0.13219346   0.23360673   0.30539401   0.63587696   0.62513356    3.2006597            0   -796.70924    0.1389393   -796.56304   0.28195795   -796.29264   0.42493693   -796.08868   0.56538909   -796.07336   0.70805965   -796.24764   0.85288582   -796.52272            1    -796.6985 
39   0.25771521  0.065445135   0.13015463   0.22790211   0.30095771   0.63509075   0.62496491    3.2033235            0   -796.70953   0.13900065   -796.56356   0.28198872   -796.29355    0.4248619   -796.08969   0.56528241   -796.07444   0.70788867   -796.24887   0.85276188   -796.52381            1   -796.69941 
40   0.25128172  0.063399211   0.12801559   0.22200416   0.29639182   0.63428663   0.62478634    3.2061358            0   -796.70984   0.13906648   -796.56411   0.28202136   -796.29449   0.42478436   -796.09074   0.56517105   -796.07555   0.70771115   -796.25013   0.85263341   -796.52493            1   -796.70034 
41   0.24464281  0.061298615   0.12577983   0.21593138   0.29171572   0.63346836   0.62459807    3.2090951            0   -796.71015   0.13913689   -796.56467   0.28205587   -796.29545   0.42470461   -796.09181   0.56505531   -796.07669   0.70752773   -796.25143   0.85250089   -796.52607            1   -796.70128 
42    0.2378181   0.05915086    0.1234511   0.20970291   0.28694909   0.63263968   0.62440034       3.2122            0   -796.71048   0.13921195   -796.56525   0.28209223   -796.29644   0.42462297   -796.09291   0.56493553   -796.07784   0.70733908   -796.25275   0.85236479   -796.52724            1   -796.70224 
43   0.23082679  0.056963451    0.1210334    0.2033373   0.28211191   0.63180425   0.62419348    3.2154485            0   -796.71082   0.13929172   -796.56584    0.2821304   -796.29745   0.42453976   -796.09402   0.56481209   -796.07901   0.70714593    -796.2541   0.85222563   -796.52842            1   -796.70321 
44   0.22369012  0.054843916   0.11853099   0.19685277   0.27722447   0.63096566   0.62397782    3.2188389            0   -796.71116   0.13937625   -796.56644   0.28217035   -796.29848   0.42445533   -796.09515   0.56468538    -796.0802   0.70694905   -796.25547   0.85208395   -796.52962            1   -796.70417 
45    0.2164283  0.052735427   0.11594836   0.19026715    0.2723073    0.6301274   0.62375375    3.2223691            0   -796.71151   0.13946553   -796.56705   0.28221201   -796.29953   0.42437002    -796.0963   0.56455584   -796.08139   0.70674925   -796.25685   0.85194031   -796.53083            1   -796.70514 
46   0.20906136  0.050607725    0.1132903   0.18359779   0.26738165   0.62929282    0.6235217     3.226037            0   -796.71187   0.13955956   -796.56767   0.28225534   -796.30058   0.42428417   -796.09744   0.56442393   -796.08258   0.70654738   -796.25824   0.85179529   -796.53205            1    -796.7061 
47   0.20160924  0.048468369   0.11056186   0.17686176    0.2624685   0.62846511   0.62328209    3.2298401            0   -796.71224   0.13965828   -796.56829   0.28230024   -796.30165   0.42419816   -796.09859   0.56429018   -796.08377   0.70634437   -796.25964   0.85164953   -796.53327            1   -796.70706 
48   0.19409174  0.046324712   0.10776834   0.17007569   0.25758942   0.62764731   0.62303538    3.2337759            0   -796.71261    0.1397616   -796.56892   0.28234662   -796.30272   0.42411234   -796.09974   0.56415514   -796.08496   0.70614116   -796.26104   0.85150368   -796.53449            1     -796.708 
49   0.18652853   0.04418473   0.10491515   0.16325555   0.25276564   0.62684224   0.62278202    3.2378419            0   -796.71298   0.13986935   -796.56955   0.28239436   -796.30379   0.42402707   -796.10089   0.56401939   -796.08614   0.70593878   -796.26244   0.85135841   -796.53571            1   -796.70892 
50    0.1789391  0.042054978   0.10200797   0.15641694   0.24801852   0.62605255   0.62252245     3.242035            0   -796.71336   0.13998136   -796.57018   0.28244332   -796.30486   0.42394271   -796.10202   0.56388359   -796.08731   0.70573828   -796.26385   0.85121446   -796.53693            1   -796.70983 
51   0.17134279   0.03994459  0.099052704   0.14957505   0.24336937   0.62528064    0.6222571     3.246352            0   -796.71374   0.14009735    -796.5708   0.28249335   -796.30592   0.42385964   -796.10314   0.56374842   -796.08846   0.70554078   -796.26525    0.8510726   -796.53814            1   -796.71072 
52   0.16375864  0.038791379  0.096055425   0.14274466    0.2388396   0.62452868   0.62198636    3.2507897            0   -796.71412   0.14021699   -796.57143   0.28254425   -796.30698   0.42377821   -796.10425   0.56361464   -796.08959   0.70534749   -796.26664   0.85093366   -796.53936            1   -796.71158 
53   0.15620576  0.037879296  0.093022125   0.13594034   0.23445003    0.6237986   0.62171057    3.2553442            0    -796.7145   0.14033988   -796.57205   0.28259582   -796.30804   0.42369878   -796.10534   0.56348306   -796.09071   0.70515963   -796.26803   0.85079853   -796.54056            1   -796.71242 
54   0.14870475  0.036918864  0.089959166   0.12917814   0.23022259   0.62309206   0.62143005    3.2600114            0   -796.71489   0.14046553   -796.57267    0.2826478   -796.30908   0.42362174    -796.1064   0.56335456   -796.09179   0.70497856   -796.26941   0.85066818   -796.54176            1   -796.71322 
55   0.14130689  0.035909584  0.086873147   0.12249644   0.22618192   0.62241048   0.62114501    3.2647873            0   -796.71527   0.14059334   -796.57329   0.28269988    -796.3101   0.42354739   -796.10744   0.56323004   -796.09285   0.70480563   -796.27079   0.85054364   -796.54296            1     -796.714 
56   0.13454845  0.034854446   0.08377196   0.11630323   0.22248542   0.62175545   0.62085552     3.269664            0   -796.71564   0.14072264    -796.5739   0.28275188   -796.31111    0.4234763   -796.10846    0.5631108   -796.09389   0.70464261   -796.27215   0.85042612   -796.54415            1   -796.71474 
57   0.13803409  0.033749238   0.08068768   0.11769006   0.22160987   0.62113636   0.62056025     3.274618            0   -796.71602   0.14085169    -796.5745   0.28280243    -796.3121   0.42340837   -796.10943   0.56299743   -796.09488   0.70449081   -796.27349   0.85031716   -796.54532            1   -796.71544 
58   0.25141862  0.078778776  0.078070074   0.20124863   0.26278986   0.62070191   0.62025227    3.2791732            0   -796.71635   0.14096718     -796.575   0.28284767    -796.3129   0.42335176   -796.11027   0.56290328   -796.09565    0.7043669   -796.27447     0.850227   -796.54627            1    -796.7159 
59   0.13892138  0.032454086  0.077199221   0.11466445   0.22176729   0.62047199    0.6202284     3.280296            0   -796.71643   0.14099408   -796.57517   0.28285538   -796.31319    0.4233376   -796.11049   0.56288202   -796.09596   0.70434139   -796.27501   0.85021003   -796.54665            1   -796.71619 
60   0.12157216  0.032339349  0.076876318   0.10371011   0.21566294   0.62040163   0.62019737    3.2807935            0   -796.71647   0.14100641   -796.57523   0.28286009    -796.3133   0.42333199   -796.11059   0.56287315   -796.09607   0.70433012   -796.27516     0.850202   -796.54678            1   -796.71627 
61   0.11792673  0.032201887  0.076510121   0.10091688   0.21434681   0.62033202   0.62016196    3.2813856            0   -796.71651   0.14102092   -796.57531   0.28286554   -796.31341   0.42332516    -796.1107   0.56286235   -796.09618   0.70431652   -796.27533    0.8501924   -796.54692            1   -796.71634 
62   0.11693344   0.03204584  0.076102089  0.099888305   0.21386808   0.62025651   0.62012206    3.2820528            0   -796.71656   0.14103715   -796.57539   0.28287156   -796.31354   0.42331746   -796.11082   0.56285022   -796.09631   0.70430133   -796.27551   0.85018173   -796.54708            1   -796.71643 
63   0.11598419  0.031872293  0.075652479  0.098968751   0.21342134   0.62017395   0.62007792    3.2827906            0   -796.71662   0.14105502   -796.57547   0.28287815   -796.31368   0.42330902   -796.11095   0.56283697   -796.09644   0.70428483    -796.2757   0.85017017   -796.54725            1   -796.71652 
64   0.11495506  0.031681616  0.075161776  0.097977502   0.21294168   0.62008447   0.62002963    3.2835982            0   -796.71667   0.14107448   -796.57557   0.28288529   -796.31383   0.42329989   -796.11109   0.56282271   -796.09659   0.70426715   -796.27592   0.85015781   -796.54744            1   -796.71662 
65   0.11384377   0.03147397  0.074630608  0.096907392   0.21242955   0.61998834   0.61997722     3.284475            0   -796.71674   0.14109551   -796.57567   0.28289298   -796.31399   0.42329013   -796.11124   0.56280753   -796.09675   0.70424844   -796.27615   0.85014475   -796.54764            1   -796.71673 
66    0.1126524  0.031249393   0.07405967  0.095760398   0.21188744   0.61988585   0.61992072    3.2854206            0    -796.7168   0.14111805   -796.57578    0.2829012   -796.31416   0.42327977   -796.11141   0.56279152   -796.09692   0.70422884    -796.2764   0.85013109   -796.54786            1   -796.71684 
67   0.11138323  0.031007881  0.073449707  0.094538683   0.21131795    0.6197773   0.61986017    3.2864342            0   -796.71688   0.14114206    -796.5759   0.28290991   -796.31435   0.42326888   -796.11158   0.56277479    -796.0971   0.70420849   -796.27667   0.85011693    -796.5481            1   -796.71696 
68   0.11003868  0.030749439  0.072801515   0.09324461   0.21072382   0.61966302    0.6197956    3.2875153            0   -796.71695   0.14116749   -796.57602    0.2829191   -796.31455   0.42325749   -796.11177   0.56275743   -796.09729   0.70418756   -796.27695   0.85010241   -796.54835            1   -796.71708 
69    0.1086214   0.03047408   0.07211594  0.091880677     0.210108   0.61954334   0.61972704    3.2886632            0   -796.71703   0.14119426   -796.57615   0.28292873   -796.31475   0.42324565   -796.11196   0.56273956   -796.09749   0.70416622   -796.27725   0.85008765   -796.54861            1   -796.71722 
70   0.10713423  0.030181833  0.071393871  0.090449517   0.20947363   0.61941861   0.61965452     3.289877            0   -796.71712   0.14122232   -796.57629   0.28293876   -796.31497   0.42323343   -796.11216    0.5627213    -796.0977   0.70414466   -796.27757    0.8500728   -796.54889            1   -796.71735 
71   0.10557981  0.029872737  0.070636244  0.088953884   0.20882373   0.61928916   0.61957808     3.291156            0   -796.71721   0.14125159   -796.57644   0.28294916    -796.3152   0.42322088   -796.11237    0.5627028   -796.09792   0.70412308    -796.2779     0.850058   -796.54918            1   -796.71749 
72   0.10396111  0.029546848  0.069844032  0.087396652   0.20816158   0.61915535   0.61949776    3.2924993            0    -796.7173     0.141282   -796.57659   0.28295988   -796.31543   0.42320806   -796.11259   0.56268418   -796.09814   0.70410168   -796.27825   0.85004342   -796.54949            1   -796.71764 
73   0.10228119  0.029204239  0.069018248  0.085780801   0.20749057   0.61901754   0.61941358    3.2939058            0   -796.71739   0.14131344   -796.57675   0.28297089   -796.31568   0.42319505   -796.11281    0.5626656   -796.09838   0.70408071   -796.27861   0.85002924   -796.54981            1   -796.71779 
74   0.10054331  0.028845003  0.068159934   0.08410942    0.2068142   0.61887608   0.61932557    3.2953746            0   -796.71749   0.14134583   -796.57691   0.28298214   -796.31593   0.42318189   -796.11304   0.56264721   -796.09862   0.70406039   -796.27899   0.85001564   -796.55014            1   -796.71794 
75  0.098750834  0.028469253  0.067270164  0.082385689   0.20613606   0.61873133   0.61923377    3.2969046            0   -796.71759   0.14137907   -796.57708   0.28299357   -796.31619   0.42316868   -796.11327    0.5626292   -796.09886   0.70404097   -796.27938   0.85000281   -796.55049            1    -796.7181 
76  0.096906919  0.028077126  0.066350048   0.08061288   0.20545966   0.61858364    0.6191382    3.2984945            0    -796.7177   0.14141303   -796.57726   0.28300512   -796.31646   0.42315547   -796.11351   0.56261174   -796.09912   0.70402273   -796.27979   0.84999096   -796.55085            1   -796.71825 
77   0.09501524  0.027668786  0.065400711  0.078794345   0.20478875   0.61843335   0.61903888    3.3001431            0   -796.71781    0.1414476   -796.57744   0.28301674   -796.31673   0.42314234   -796.11376   0.56259501   -796.09938   0.70400595   -796.28021   0.84998031   -796.55122            1   -796.71841 
78  0.093079094  0.027244427  0.064423297  0.076933515   0.20412693   0.61828078   0.61893584    3.3018491            0   -796.71792   0.14148266   -796.57762   0.28302837   -796.31702   0.42312937     -796.114   0.56257922   -796.09964   0.70399091   -796.28065    0.8499711   -796.55161            1   -796.71857 
79  0.091102259  0.026801825  0.063418858  0.075033876     0.203478   0.61812628   0.61882908     3.303611            0   -796.71803   0.14151805   -796.57782   0.28303994    -796.3173   0.42311664   -796.11425   0.56256458   -796.09991   0.70397792    -796.2811   0.84996356     -796.552            1   -796.71874 
80  0.089088395   0.02634381  0.062388526  0.073098974    0.2028457   0.61797013   0.61871862    3.3054273            0   -796.71815   0.14155364   -796.57801   0.28305136    -796.3176   0.42310424   -796.11451   0.56255131   -796.10018   0.70396731   -796.28156   0.84995795   -796.55241            1    -796.7189 
81  0.087041213   0.02587066  0.061333559  0.071132409   0.20223375   0.61781263   0.61860446    3.3072963            0   -796.71827   0.14158927   -796.57821   0.28306258   -796.31789   0.42309224   -796.11476   0.56253964   -796.10046   0.70395942   -796.28204   0.84995454   -796.55284            1   -796.71906 
82  0.084964464  0.025382708  0.060255158  0.069137826   0.20164587   0.61765406   0.61848661    3.3092165            0   -796.71839   0.14162476   -796.57842    0.2830735    -796.3182   0.42308075   -796.11502   0.56252982   -796.10073   0.70395458   -796.28253   0.84995361   -796.55327            1   -796.71922 
83  0.082861923  0.024880301  0.059154472  0.067118903   0.20108572   0.61749467   0.61836505    3.3111858            0   -796.71851   0.14165994   -796.57863   0.28308403    -796.3185   0.42306984   -796.11527    0.5625221   -796.10102   0.70395318   -796.28303   0.84995545   -796.55372            1   -796.71938 
84  0.080737475  0.024363919  0.058032637  0.065079349   0.20055699   0.61733468   0.61823978    3.3132025            0   -796.71864   0.14169463   -796.57885    0.2830941   -796.31882   0.42305961   -796.11553   0.56251675    -796.1013   0.70395559   -796.28355   0.84996036   -796.55417            1   -796.71954 
85  0.078594779  0.023833847  0.056890766  0.063022927   0.20006316   0.61717429   0.61811077    3.3152644            0   -796.71876   0.14172863   -796.57907   0.28310359   -796.31913   0.42305016   -796.11578   0.56251404   -796.10159    0.7039622   -796.28408   0.84996866   -796.55464            1    -796.7197 
86  0.076437606  0.023291106  0.055729939  0.060953365   0.19960773   0.61701369   0.61797799    3.3173694            0   -796.71889   0.14176173    -796.5793   0.28311242   -796.31945   0.42304158   -796.11604   0.56251427   -796.10187   0.70397344   -796.28462   0.84998069   -796.55513            1   -796.71985 
87  0.074269952  0.022734632  0.054551205  0.058874386    0.1991941   0.61685302   0.61784141    3.3195152            0   -796.71902   0.14179373   -796.57953   0.28312047   -796.31977   0.42303399   -796.11629   0.56251774   -796.10216   0.70398971   -796.28518   0.84999677   -796.55562            1      -796.72 
88  0.072098168  0.022223808  0.053355594  0.056789762   0.19882689    0.6166924   0.61770098    3.3216994            0   -796.71914   0.14182439   -796.57976   0.28312765   -796.32009    0.4230275   -796.11654   0.56252477   -796.10245   0.70401147   -796.28575   0.85001725   -796.55613            1   -796.72015 
89  0.069963805  0.021862454  0.052144361  0.054703689   0.19852081   0.61653194   0.61755669    3.3239191            0   -796.71927    0.1418535      -796.58   0.28313384   -796.32042   0.42302218   -796.11678   0.56253567   -796.10274   0.70403916   -796.28633    0.8500425   -796.55664            1    -796.7203 
90  0.068449442  0.021410853  0.050922397  0.052626501   0.19848044   0.61637218   0.61740894     3.326171            0    -796.7194    0.1418808   -796.58024    0.2831389   -796.32074   0.42301823   -796.11703   0.56255083   -796.10303   0.70407323   -796.28693   0.85007288   -796.55717            1   -796.72044 
91  0.076592421  0.021253841  0.049749371  0.050666113   0.20188132   0.61622077   0.61726523    3.3284337            0   -796.71953   0.14190584   -796.58048   0.28314266   -796.32107    0.4230154   -796.11726   0.56257026   -796.10331    0.7041139   -796.28754    0.8501085   -796.55771            1   -796.72058 
92     0.156286  0.056598513   0.04929934  0.050089426    0.2435721   0.61617542   0.61722278    3.3304456            0   -796.71965   0.14192509    -796.5807   0.28314345   -796.32134   0.42301362   -796.11741   0.56259272   -796.10347   0.70415694   -796.28806   0.85014527   -796.55818            1   -796.72069 
93  0.064720686  0.020674992  0.048355409  0.048367508   0.19831961   0.61604209   0.61708989    3.3308861            0   -796.71967   0.14192966   -796.58075   0.28314432   -796.32142   0.42301261   -796.11751   0.56259983   -796.10363   0.70416795   -796.28821   0.85015425    -796.5583            1   -796.72072 
94  0.062887545   0.02055155  0.048124986  0.047989823   0.19784549   0.61601212   0.61705989    3.3313046            0    -796.7197   0.14193321    -796.5808   0.28314441   -796.32148    0.4230128   -796.11755   0.56260528   -796.10368   0.70417823   -796.28833   0.85016308   -796.55841            1   -796.72074 
95  0.062464328  0.020468713  0.047876536  0.047587828    0.1978256   0.61598068   0.61702827    3.3317588            0   -796.71972   0.14193696   -796.58085   0.28314445   -796.32154   0.42301304    -796.1176   0.56261134   -796.10374   0.70418964   -796.28845   0.85017288   -796.55852            1   -796.72077 
96  0.062010031  0.020378988  0.047608821  0.047156079   0.19780709   0.61594688   0.61699409    3.3322482            0   -796.71975   0.14194089    -796.5809   0.28314443   -796.32161   0.42301337   -796.11765   0.56261809    -796.1038   0.70420225   -796.28859   0.85018367   -796.55864            1    -796.7208 
97  0.061524923   0.02028259  0.047322038  0.046695231    0.1977902   0.61591074   0.61695734    3.3327725            0   -796.71978   0.14194498   -796.58096   0.28314434   -796.32169   0.42301381    -796.1177   0.56262557   -796.10387   0.70421612   -796.28874   0.85019552   -796.55877            1   -796.72082 
98    0.0610097  0.020179436    0.0470164   0.04620599    0.1977756   0.61587232   0.61691803    3.3333312            0   -796.71981   0.14194918   -796.58102   0.28314417   -796.32177   0.42301437   -796.11775   0.56263383   -796.10394   0.70423131   -796.28889   0.85020847    -796.5589            1   -796.72086 
99  0.060465106  0.020069558  0.046692133  0.045689106   0.19776396   0.61583165   0.61687616     3.333924            0   -796.71984   0.14195346   -796.58109    0.2831439   -796.32185   0.42301508   -796.11781   0.56264292   -796.10401   0.70424791   -796.28906   0.85022259   -796.55905            1   -796.72089 
100  0.059891911  0.019952955  0.046349471   0.04514537   0.19775598   0.61578877   0.61683172    3.3345502            0   -796.71988    0.1419578   -796.58116   0.28314351   -796.32194   0.42301596   -796.11787   0.56265291   -796.10409   0.70426598   -796.28924   0.85023792   -796.55921            1   -796.72092 
101  0.059290919  0.019829644  0.045988663  0.044575614   0.19775238   0.61574373   0.61678472    3.3352095            0   -796.71991   0.14196214   -796.58123   0.28314298   -796.32203   0.42301702   -796.11793   0.56266385   -796.10417   0.70428562   -796.28943   0.85025454   -796.55937            1   -796.72096 
102  0.058662976  0.019699638  0.045609962  0.043980711   0.19775394   0.61569657   0.61673514    3.3359011            0   -796.71995   0.14196645   -796.58131   0.28314229   -796.32213    0.4230183   -796.11799   0.56267581   -796.10426    0.7043069   -796.28962   0.85027251   -796.55955            1   -796.72099 
103  0.058008945  0.019562953  0.045213634  0.043361571   0.19776144   0.61564733     0.616683    3.3366246            0   -796.71999   0.14197069   -796.58139   0.28314143   -796.32223   0.42301981   -796.11806   0.56268885   -796.10435   0.70432992   -796.28983    0.8502919   -796.55973            1   -796.72103 
104   0.05732973  0.019419606  0.044799951  0.042719137   0.19777567   0.61559606   0.61662828    3.3373792            0   -796.72003   0.14197481   -796.58148   0.28314037   -796.32234   0.42302159   -796.11813   0.56270305   -796.10444   0.70435478   -796.29005   0.85031279   -796.55992            1   -796.72107 
105  0.056626246  0.019269615   0.04436919   0.04205439   0.19779748   0.61554278   0.61657099    3.3381644            0   -796.72008   0.14197876   -796.58157    0.2831391   -796.32245   0.42302365    -796.1182   0.56271847   -796.10453   0.70438158   -796.29028   0.85033525   -796.56012            1   -796.72111 
106  0.055899452  0.019112996  0.043921636  0.041368341    0.1978277   0.61548755   0.61651111    3.3389794            0   -796.72012    0.1419825   -796.58166   0.28313758   -796.32256   0.42302604   -796.11827   0.56273521   -796.10463   0.70441043   -796.29051   0.85035936   -796.56032            1   -796.72115 
107  0.055150324  0.018949769  0.043457579  0.040662033    0.1978672    0.6154304   0.61644864    3.3398234            0   -796.72017   0.14198598   -796.58175    0.2831358   -796.32268   0.42302878   -796.11835   0.56275334   -796.10474   0.70444142   -796.29076   0.85038521   -796.56054            1   -796.72119 
108  0.054379852  0.018779949  0.042977311  0.039936533   0.19791685   0.61537136   0.61638358    3.3406956            0   -796.72021   0.14198914   -796.58185   0.28313373    -796.3228    0.4230319   -796.11842   0.56277294   -796.10484   0.70447468   -796.29102   0.85041288   -796.56077            1   -796.72123 
109  0.053589041  0.018603559  0.042481127  0.039192937   0.19797752   0.61531047   0.61631592    3.3415953            0   -796.72026   0.14199193   -796.58195   0.28313136   -796.32292   0.42303544    -796.1185   0.56279411   -796.10495   0.70451032   -796.29128   0.85044246     -796.561            1   -796.72127 
110  0.052778931  0.018420603  0.041969332  0.038432365   0.19805012   0.61524776   0.61624565    3.3425215            0   -796.72031   0.14199431   -796.58206   0.28312865   -796.32305   0.42303944   -796.11858   0.56281693   -796.10507   0.70454847   -796.29156   0.85047403   -796.56124            1   -796.72131 
111  0.051950393  0.018230723  0.041442233  0.037655952   0.19813466   0.61518325   0.61617276    3.3434734            0   -796.72036    0.1419962   -796.58217   0.28312558   -796.32318   0.42304392   -796.11866    0.5628415   -796.10518   0.70458925   -796.29185    0.8505077   -796.56149            1   -796.72135 
112  0.051104532  0.018034163  0.040900113  0.036864856   0.19823254   0.61511696   0.61609724      3.34445            0   -796.72042   0.14199757   -796.58228   0.28312212   -796.32332   0.42304894   -796.11874   0.56286793    -796.1053   0.70463278   -796.29215   0.85054355   -796.56175            1    -796.7214 
113  0.050242411  0.017831175  0.040343272  0.036060249   0.19834495   0.61504892   0.61601908    3.3454502            0   -796.72047   0.14199834   -796.58239   0.28311826   -796.32346   0.42305453   -796.11882    0.5628963   -796.10542    0.7046792   -796.29245   0.85058169   -796.56201            1   -796.72144 
114   0.04936505  0.017621604  0.039772004  0.035243319    0.1984728   0.61497913   0.61593828    3.3464731            0   -796.72052   0.14199847   -796.58251   0.28311398    -796.3236   0.42306073    -796.1189   0.56292672   -796.10554   0.70472864   -796.29277   0.85062221   -796.56229            1   -796.72148 
115  0.048473491   0.01740586  0.039186603  0.034415262    0.1986169   0.61490762   0.61585481    3.3475176            0   -796.72058   0.14199791   -796.58263   0.28310924   -796.32374    0.4230676   -796.11898   0.56295931   -796.10567   0.70478125    -796.2931    0.8506652   -796.56257            1   -796.72152 
116   0.04756883  0.017182971   0.03858736  0.033577285   0.19877835   0.61483438   0.61576867    3.3485825            0   -796.72063   0.14199658   -796.58276   0.28310404   -796.32388   0.42307518   -796.11906   0.56299417    -796.1058   0.70483715   -796.29343   0.85071078   -796.56286            1   -796.72157 
117  0.046653186  0.016955593  0.037974568  0.032730609   0.19895768   0.61475941   0.61567983    3.3496667            0   -796.72069   0.14199445   -796.58289   0.28309834   -796.32403   0.42308351   -796.11914   0.56303142   -796.10593   0.70489649   -796.29378   0.85075903   -796.56316            1   -796.72161 
118  0.045737216  0.016716292  0.037348555  0.031876512   0.19915954   0.61468271   0.61558831    3.3507689            0   -796.72075   0.14199145   -796.58302   0.28309214   -796.32418   0.42309267   -796.11922   0.56307117   -796.10606   0.70495942   -796.29414   0.85081006   -796.56346            1   -796.72165 
119  0.044927094  0.016487703  0.036710062  0.031016834   0.19940261   0.61460438   0.61549418     3.351887            0    -796.7208   0.14198754   -796.58315   0.28308542   -796.32433   0.42310267    -796.1193   0.56311349    -796.1062     0.705026    -796.2945   0.85086392   -796.56378            1   -796.72169 
120  0.045391029  0.016200436  0.036064271  0.030159321   0.19995661   0.61452552   0.61539868    3.3530114            0   -796.72086   0.14198271   -796.58328   0.28307823   -796.32448   0.42311357   -796.11938   0.56315826   -796.10634   0.70509592   -796.29488   0.85092032    -796.5641            1   -796.72173 
121  0.064937433  0.016916135  0.035464491  0.029374629   0.20304344   0.61445726   0.61531439    3.3540516            0   -796.72091   0.14197718    -796.5834   0.28307089   -796.32462   0.42312399   -796.11944   0.56320141   -796.10646   0.70516331   -796.29522   0.85097458   -796.56439            1   -796.72177 
122  0.060285133  0.015812496  0.035194242  0.029025175   0.20248629   0.61442211    0.6152718    3.3545139            0   -796.72094   0.14197436   -796.58346   0.28306728   -796.32468   0.42312906   -796.11947   0.56322223   -796.10652   0.70519522   -796.29538   0.85100007   -796.56452            1   -796.72179 
123  0.047397759  0.015826761  0.035132183  0.028945205   0.20079385   0.61441089   0.61525886    3.3546181            0   -796.72094   0.14197371   -796.58347   0.28306648    -796.3247    0.4231302   -796.11948   0.56322698   -796.10653   0.70520255   -796.29542    0.8510059   -796.56456            1   -796.72179 
124  0.043071179  0.015823452  0.035050237  0.028839975   0.20016389   0.61439937   0.61524504    3.3547571            0   -796.72095    0.1419728   -796.58349   0.28306543   -796.32472   0.42313176   -796.11949   0.56323324   -796.10655   0.70521223   -796.29547   0.85101364    -796.5646            1    -796.7218 
125   0.04231579  0.015799913  0.034952051  0.028714226   0.20007264   0.61438689   0.61522981    3.3549243            0   -796.72096    0.1419717   -796.58351   0.28306416   -796.32474   0.42313368   -796.11951   0.56324078   -796.10657   0.70522387   -796.29553   0.85102297   -796.56465            1    -796.7218 
126  0.042096563  0.015761944   0.03484066  0.028571909   0.20010648     0.614373   0.61521279    3.3551138            0   -796.72097   0.14197042   -796.58353   0.28306273   -796.32477   0.42313591   -796.11952    0.5632494   -796.10659   0.70523714    -796.2956    0.8510336    -796.5647            1   -796.72181 
127  0.041918412  0.015715294   0.03471677  0.028414029   0.20015926   0.61435757   0.61519385    3.3553243            0   -796.72098   0.14196897   -796.58356   0.28306112    -796.3248   0.42313841   -796.11953   0.56325905   -796.10662   0.70525198   -796.29567   0.85104549   -796.56477            1   -796.72181 
128  0.041725806  0.015662775  0.034580495  0.028240861   0.20021884   0.61434059   0.61517298    3.3555556            0   -796.72099   0.14196735   -796.58359   0.28305935   -796.32483   0.42314121   -796.11955   0.56326975   -796.10665   0.70526841   -796.29575   0.85105865   -796.56483            1   -796.72182 
129  0.041516258   0.01560526  0.034431897  0.028052634   0.20028464   0.61432205   0.61515019    3.3558074            0     -796.721   0.14196555   -796.58362    0.2830574   -796.32486   0.42314429   -796.11956   0.56328152   -796.10668   0.70528644   -796.29584   0.85107308   -796.56491            1   -796.72183 
130  0.041289942  0.015542899  0.034271042   0.02784959   0.20035678   0.61430196   0.61512546    3.3560796            0   -796.72102   0.14196355   -796.58365   0.28305527    -796.3249   0.42314768   -796.11958   0.56329437   -796.10671   0.70530612   -796.29593   0.85108882   -796.56499            1   -796.72184 
131  0.041047082  0.015475702  0.034098001  0.027631991   0.20043545   0.61428033    0.6150988    3.3563718            0   -796.72103   0.14196134   -796.58369   0.28305295   -796.32494   0.42315138    -796.1196   0.56330832   -796.10675   0.70532745   -796.29604   0.85110586   -796.56507            1   -796.72185 
132  0.040787915  0.015403675  0.033912851   0.02740012   0.20052085   0.61425716   0.61507021    3.3566838            0   -796.72105   0.14195892   -796.58372   0.28305046   -796.32498    0.4231554   -796.11962   0.56332341   -796.10679   0.70535048   -796.29615   0.85112425   -796.56517            1   -796.72186 
133  0.040512694  0.015326827  0.033715674  0.027154275   0.20061319   0.61423244   0.61503969    3.3570153            0   -796.72106   0.14195627   -796.58377   0.28304777   -796.32503   0.42315976   -796.11964   0.56333964   -796.10683   0.70537523   -796.29626   0.85114399   -796.56527            1   -796.72187 
134  0.040221684  0.015245165  0.033506556  0.026894775    0.2007127   0.61420619   0.61500723    3.3573661            0   -796.72108   0.14195338   -796.58381   0.28304489   -796.32507   0.42316447   -796.11966   0.56335707   -796.10688   0.70540174   -796.29639   0.85116511   -796.56537            1   -796.72188 
135  0.039915166  0.015158699  0.033285588  0.026621956   0.20081959    0.6141784   0.61497283    3.3577358            0    -796.7211   0.14195025   -796.58385   0.28304182   -796.32512   0.42316954   -796.11968    0.5633757   -796.10692   0.70543003   -796.29652   0.85118764   -796.56548            1   -796.72189 
136  0.039593429  0.015067437  0.033052866  0.026336168   0.20093412   0.61414909    0.6149365     3.358124            0   -796.72112   0.14194684    -796.5839   0.28303855   -796.32518   0.42317498   -796.11971   0.56339558   -796.10697   0.70546015   -796.29666   0.85121159    -796.5656            1   -796.72191 
137  0.039256777  0.014971391   0.03280849  0.026037781   0.20105654   0.61411824   0.61489822    3.3585305            0   -796.72114   0.14194317   -796.58395   0.28303508   -796.32523   0.42318082   -796.11973   0.56341672   -796.10702   0.70549214   -796.29681     0.851237   -796.56572            1   -796.72192 
138  0.038905523  0.014870571  0.032552564  0.025727177    0.2011871   0.61408587     0.614858    3.3589547            0   -796.72116    0.1419392     -796.584    0.2830314   -796.32529   0.42318707   -796.11976   0.56343918   -796.10708   0.70552602   -796.29696   0.85126389   -796.56585            1   -796.72193 
139  0.038539989  0.014764989  0.032285195  0.025404755   0.20132607   0.61405196   0.61481583    3.3593964            0   -796.72118   0.14193492   -796.58406   0.28302752   -796.32535   0.42319375   -796.11978   0.56346298   -796.10713   0.70556185   -796.29712   0.85129228   -796.56599            1   -796.72195 
140  0.038160505  0.014654656  0.032006495  0.025070937   0.20147373   0.61401653   0.61477172     3.359855            0   -796.72121   0.14193033   -796.58411   0.28302343   -796.32541   0.42320087   -796.11981   0.56348816   -796.10719   0.70559967   -796.29729   0.85132222   -796.56613            1   -796.72196 
141   0.03776741  0.014539587  0.031716579  0.024726145   0.20163035   0.61397957   0.61472565    3.3603302            0   -796.72123   0.14192541   -796.58417   0.28301914   -796.32547   0.42320846   -796.11984   0.56351475   -796.10725   0.70563952   -796.29747   0.85135372   -796.56627            1   -796.72198 
142  0.037361049  0.014419792  0.031415587  0.024370809   0.20179623   0.61394109   0.61467764    3.3608214            0   -796.72125   0.14192015   -796.58423   0.28301463   -796.32554   0.42321654   -796.11986    0.5635428   -796.10731   0.70568145   -796.29765   0.85138681   -796.56642            1   -796.72199 
143  0.036941773  0.014295286  0.031103628  0.024005378   0.20197165   0.61390107   0.61462767    3.3613282            0   -796.72128   0.14191452    -796.5843   0.28300991    -796.3256   0.42322513   -796.11989   0.56357235   -796.10738    0.7057255   -796.29784   0.85142153   -796.56658            1     -796.722 
144  0.036509939  0.014166083  0.030780817   0.02363031   0.20215691   0.61385951   0.61457574    3.3618501            0    -796.7213   0.14190853   -796.58436   0.28300498   -796.32567   0.42323426   -796.11992   0.56360345   -796.10744   0.70577171   -796.29804    0.8514579   -796.56675            1   -796.72202 
145  0.036065914  0.014032197  0.030447287  0.023246074    0.2023523   0.61381642   0.61452184    3.3623865            0   -796.72133   0.14190215   -796.58443   0.28299985   -796.32575   0.42324394   -796.11995   0.56363612   -796.10751   0.70582015   -796.29825   0.85149596   -796.56691            1   -796.72204 
146  0.035610043  0.013893643  0.030103162  0.022853146   0.20255813   0.61377178   0.61446599    3.3629369            0   -796.72136   0.14189538    -796.5845   0.28299451   -796.32582   0.42325421   -796.11998   0.56367042   -796.10758   0.70587085   -796.29846   0.85153574   -796.56709            1   -796.72205 
147  0.035142688  0.013750435  0.029748576  0.022452011    0.2027747   0.61372559   0.61440816    3.3635007            0   -796.72138    0.1418882   -796.58457   0.28298896   -796.32589    0.4232651   -796.12001    0.5637064   -796.10766   0.70592386   -796.29868   0.85157726   -796.56727            1   -796.72207 
148  0.034664215  0.013602593  0.029383662  0.022043158   0.20300231   0.61367784   0.61434836    3.3640774            0   -796.72141   0.14188061   -796.58464   0.28298322   -796.32597   0.42327662   -796.12004   0.56374411   -796.10773   0.70597924   -796.29891   0.85162056   -796.56745            1   -796.72208 
149  0.034174986  0.013450125  0.029008559  0.021627085   0.20324127   0.61362852   0.61428659    3.3646662            0   -796.72144   0.14187259   -796.58471   0.28297729   -796.32605   0.42328882   -796.12007   0.56378358   -796.10781   0.70603704   -796.29914   0.85166567   -796.56765            1    -796.7221 
150  0.033675362  0.013293064  0.028623404   0.02120429   0.20349187   0.61357762   0.61422284    3.3652667            0   -796.72147   0.14186414   -796.58479   0.28297118   -796.32613   0.42330173    -796.1201   0.56382488   -796.10789   0.70609731   -796.29938   0.85171261   -796.56784            1   -796.72211 
151  0.033165697  0.013131387  0.028228338  0.020775279   0.20375443   0.61352513    0.6141571    3.3658781            0    -796.7215   0.14185525   -796.58486   0.28296489   -796.32621   0.42331538   -796.12012   0.56386804   -796.10797   0.70616009   -796.29963   0.85176142   -796.56804            1   -796.72213 
152  0.032646346  0.012965203  0.027823503  0.020340555   0.20402923   0.61347103   0.61408937    3.3664998            0   -796.72153   0.14184592   -796.58494   0.28295845   -796.32629    0.4233298   -796.12015   0.56391314   -796.10806   0.70622544   -796.29989   0.85181212   -796.56825            1   -796.72215 
153  0.032117676  0.012794298  0.027409044  0.019900625   0.20431659   0.61341531   0.61401965     3.367131            0   -796.72156   0.14183613   -796.58502   0.28295186   -796.32637   0.42334505   -796.12018   0.56396021   -796.10814   0.70629341   -796.30015   0.85186474   -796.56846            1   -796.72216 
154  0.031580035  0.012619298  0.026985111     0.019456   0.20461676   0.61335795   0.61394793    3.3677711            0   -796.72159   0.14182591    -796.5851   0.28294514   -796.32645   0.42336114   -796.12021   0.56400931   -796.10823   0.70636404   -796.30042   0.85191931   -796.56868            1   -796.72218 
155  0.031034594  0.012440299  0.026551876  0.019007211   0.20493063   0.61329893   0.61387421    3.3684194            0   -796.72162   0.14181523   -796.58518   0.28293831   -796.32654   0.42337814   -796.12023    0.5640605   -796.10832    0.7064374   -796.30069   0.85197585    -796.5689            1   -796.72219 
156  0.030482651  0.012260869  0.026109748   0.01855502   0.20525774   0.61323827   0.61379851    3.3690748            0   -796.72165   0.14180412   -796.58526   0.28293139   -796.32662   0.42339605   -796.12026   0.56411379   -796.10841   0.70651346   -796.30098   0.85203435   -796.56912            1   -796.72221 
157  0.029940251  0.012066191   0.02566179  0.018103212   0.20560024   0.61317621   0.61372119    3.3697336            0   -796.72168   0.14179263   -796.58535    0.2829245   -796.32671   0.42341494   -796.12029   0.56416908    -796.1085   0.70659201   -796.30126   0.85209458   -796.56935            1   -796.72223 
158  0.044444891  0.013619165  0.025241427  0.017690192   0.20595413   0.61311616   0.61364648    3.3703602            0   -796.72171   0.14178138   -796.58542   0.28291784   -796.32678   0.42343345   -796.12031   0.56422303   -796.10859   0.70666852   -796.30154   0.85215322   -796.56957            1   -796.72224 
159  0.057493511   0.01914912  0.025014887  0.017475812   0.20616782   0.61308296   0.61360521    3.3707006            0   -796.72173   0.14177499   -796.58546   0.28291447   -796.32682   0.42344439   -796.12032   0.56425372   -796.10864   0.70671176   -796.30168    0.8521859   -796.56969            1   -796.72225 
160  0.047507758   0.01489224  0.024984057  0.017439491   0.20616519   0.61307982   0.61360132    3.3707315            0   -796.72173    0.1417744   -796.58547   0.28291408   -796.32683   0.42344532   -796.12032   0.56425652   -796.10865   0.70671575    -796.3017   0.85218893    -796.5697            1   -796.72225 
161  0.037550632  0.011757634  0.024944966  0.017396347   0.20617356   0.61307531   0.61359573    3.3707763            0   -796.72173   0.14177354   -796.58548   0.28291355   -796.32684    0.4234467   -796.12032   0.56426058   -796.10865    0.7067215   -796.30173   0.85219332   -796.56972            1   -796.72225 
162  0.030505001  0.011745758  0.024897288  0.017347059   0.20619782   0.61306917   0.61358812    3.3708378            0   -796.72173   0.14177237   -796.58548   0.28291287   -796.32685   0.42344863   -796.12032   0.56426615   -796.10866   0.70672937   -796.30176   0.85219933   -796.56974            1   -796.72225 
163  0.028916841  0.011727416   0.02484093  0.017291201   0.20623735   0.61306143   0.61357851    3.3709155            0   -796.72174   0.14177091   -796.58549   0.28291203   -796.32686    0.4234511   -796.12033   0.56427323   -796.10867   0.70673933   -796.30179   0.85220694   -796.56977            1   -796.72225 
164  0.028832441  0.011702964  0.024776212  0.017228055   0.20628763   0.61305233   0.61356722    3.3710068            0   -796.72174   0.14176918   -796.58551   0.28291107   -796.32687   0.42345405   -796.12033   0.56428159   -796.10869   0.70675108   -796.30184   0.85221591    -796.5698            1   -796.72225 
165  0.028742394  0.011673455  0.024703232  0.017157163   0.20634575   0.61304201   0.61355442    3.3711101            0   -796.72174   0.14176722   -796.58552   0.28290999   -796.32688   0.42345742   -796.12033   0.56429111    -796.1087   0.70676443   -796.30188   0.85222609   -796.56984            1   -796.72226 
166  0.028642904  0.011639732  0.024621976  0.017078423   0.20641089   0.61303049   0.61354014    3.3712251            0   -796.72175   0.14176504   -796.58553   0.28290881    -796.3269    0.4234612   -796.12034   0.56430175   -796.10872   0.70677934   -796.30194   0.85223745   -796.56988            1   -796.72226 
167   0.02853345  0.011602262  0.024532454  0.016991889   0.20648296   0.61301779   0.61352439    3.3713514            0   -796.72176   0.14176263   -796.58555    0.2829075   -796.32691    0.4234654   -796.12034   0.56431351   -796.10874   0.70679582   -796.30199      0.85225   -796.56992            1   -796.72226 
168  0.028414055  0.011561241  0.024434694  0.016897649   0.20656197   0.61300389   0.61350717    3.3714891            0   -796.72176   0.14175999   -796.58557   0.28290609   -796.32693   0.42347001   -796.12035   0.56432641   -796.10876   0.70681387   -796.30206   0.85226373   -796.56997            1   -796.72227 
169  0.028284791  0.011516721  0.024328728  0.016795802   0.20664797    0.6129888   0.61348849     3.371638            0   -796.72177   0.14175712   -796.58559   0.28290457   -796.32695   0.42347504   -796.12035   0.56434045   -796.10878   0.70683349   -796.30213   0.85227866   -796.57003            1   -796.72227 
170  0.028145692  0.011468604  0.024214592  0.016686456   0.20674097   0.61297251   0.61346833    3.3717979            0   -796.72178   0.14175403   -796.58561   0.28290294   -796.32697   0.42348051   -796.12036   0.56435564    -796.1088   0.70685471    -796.3022   0.85229478   -796.57009            1   -796.72227 
171  0.027996675  0.011416522  0.024092322  0.016569726   0.20684082   0.61295502    0.6134467    3.3719688            0   -796.72178   0.14175072   -796.58563   0.28290121   -796.32699   0.42348641   -796.12036   0.56437199   -796.10883   0.70687752   -796.30228   0.85231211   -796.57015            1   -796.72228 
172  0.027838018  0.011360947   0.02396196  0.016445736   0.20694782   0.61293634    0.6134236    3.3721504            0   -796.72179   0.14174717   -796.58565   0.28289938   -796.32701   0.42349277   -796.12037   0.56438952   -796.10886   0.70690194   -796.30237   0.85233064   -796.57021            1   -796.72228 
173  0.027669825  0.011301885  0.023823549  0.016314615   0.20706207   0.61291645   0.61339903    3.3723425            0    -796.7218    0.1417434   -796.58567   0.28289746   -796.32704   0.42349958   -796.12037   0.56440823   -796.10888   0.70692797   -796.30246   0.85235038   -796.57028            1   -796.72228 
174  0.027492198  0.011239344  0.023677136  0.016176502   0.20718361   0.61289535   0.61337299    3.3725451            0   -796.72181    0.1417394    -796.5857   0.28289546   -796.32706   0.42350686   -796.12038   0.56442813   -796.10892   0.70695563   -796.30255   0.85237134   -796.57036            1   -796.72229 
175  0.027305227  0.011173331  0.023522769  0.016031542   0.20731254   0.61287305   0.61334549    3.3727578            0   -796.72182   0.14173518   -796.58572   0.28289337   -796.32709   0.42351462   -796.12038   0.56444925   -796.10895   0.70698494   -796.30265   0.85239352   -796.57044            1   -796.72229 
176  0.027109035  0.011103857  0.023360502  0.015879885   0.20744893   0.61284953   0.61331651    3.3729805            0   -796.72183   0.14173073   -796.58575    0.2828912   -796.32711   0.42352287   -796.12039    0.5644716   -796.10898   0.70701589   -796.30276   0.85241693   -796.57052            1    -796.7223 
177  0.026903721  0.011030915  0.023190387  0.015721689    0.2075928    0.6128248   0.61328607     3.373213            0   -796.72184   0.14172606   -796.58578   0.28288897   -796.32714   0.42353162    -796.1204   0.56449518   -796.10902   0.70704851   -796.30287   0.85244157    -796.5706            1    -796.7223 
178  0.026689339  0.010954468  0.023012482  0.015557119   0.20774396   0.61279885   0.61325415     3.373455            0   -796.72185   0.14172117   -796.58581   0.28288667   -796.32717   0.42354089    -796.1204   0.56452002   -796.10905   0.70708281   -796.30299   0.85246745   -796.57069            1   -796.72231 
179  0.026466093  0.010874569  0.022826848  0.015386345   0.20790281   0.61277167   0.61322077    3.3737063            0   -796.72186   0.14171606   -796.58584   0.28288432    -796.3272   0.42355069   -796.12041   0.56454613   -796.10909    0.7071188   -796.30311   0.85249458   -796.57079            1   -796.72231 
180   0.02623411  0.010791233  0.022633545   0.01520954   0.20806944   0.61274327   0.61318592    3.3739667            0   -796.72188   0.14171074   -796.58587   0.28288192   -796.32723   0.42356103   -796.12042   0.56457353   -796.10913   0.70715649   -796.30324   0.85252296   -796.57089            1   -796.72232 
181  0.025993518  0.010704473   0.02243264  0.015026887   0.20824394   0.61271364    0.6131496    3.3742358            0   -796.72189    0.1417052   -796.58591   0.28287949   -796.32727   0.42357194   -796.12042   0.56460224   -796.10917    0.7071959   -796.30337   0.85255259   -796.57099            1   -796.72232 
182  0.025744452  0.010614304    0.0222242  0.014838568   0.20842641   0.61268276   0.61311181    3.3745134            0    -796.7219   0.14169945   -796.58594   0.28287703    -796.3273   0.42358342   -796.12043   0.56463227   -796.10922   0.70723704    -796.3035   0.85258348   -796.57109            1   -796.72233 
183  0.025487046  0.010520741  0.022008294  0.014644775   0.20861694   0.61265064   0.61307256    3.3747993            0   -796.72191    0.1416935   -796.58598   0.28287456   -796.32733    0.4235955   -796.12043   0.56466364   -796.10926   0.70727992   -796.30365   0.85261564    -796.5712            1   -796.72233 
184  0.025221438  0.010423798  0.021784995  0.014445701   0.20881564   0.61261727   0.61303183    3.3750931            0   -796.72193   0.14168734   -796.58601   0.28287209   -796.32737   0.42360819   -796.12044   0.56469637   -796.10931   0.70732456   -796.30379   0.85264907   -796.57131            1   -796.72234 
185  0.024947769   0.01032349  0.021554379  0.014241542   0.20902259   0.61258264   0.61298964    3.3753945            0   -796.72194   0.14168099   -796.58605   0.28286963    -796.3274   0.42362152   -796.12045   0.56473049   -796.10936   0.70737098   -796.30395   0.85268377   -796.57143            1   -796.72235 
186  0.024666178  0.010219829  0.021316522  0.014032499   0.20923791   0.61254675   0.61294598    3.3757032            0   -796.72195   0.14167446   -796.58609    0.2828672   -796.32744    0.4236355   -796.12045   0.56476601   -796.10941   0.70741918   -796.30411   0.85271975   -796.57155            1   -796.72235 
187  0.024376808  0.010112832  0.021071505  0.013818776   0.20946168   0.61250959   0.61290085     3.376019            0   -796.72197   0.14166774   -796.58613   0.28286481   -796.32748   0.42365016   -796.12046   0.56480295   -796.10946   0.70746918   -796.30427   0.85275702   -796.57167            1   -796.72236 
188  0.024079805  0.010002515  0.020819409  0.013600577     0.209694   0.61247115   0.61285425    3.3763414            0   -796.72198   0.14166085   -796.58616   0.28286248   -796.32751   0.42366551   -796.12046   0.56484134   -796.10951   0.70752099   -796.30444   0.85279557    -796.5718            1   -796.72236 
189  0.023775314  0.009888892   0.02056032  0.013378111   0.20993499   0.61243141   0.61280618    3.3766701            0     -796.722    0.1416538    -796.5862   0.28286023   -796.32755   0.42368159   -796.12047   0.56488119   -796.10956   0.70757463   -796.30461   0.85283541   -796.57193            1   -796.72237 
190  0.023463479 0.0097719906  0.020294325  0.013151586   0.21018472   0.61239039   0.61275665    3.3770049            0   -796.72201    0.1416466   -796.58624   0.28285808   -796.32759   0.42369842   -796.12047   0.56492253   -796.10962   0.70763011   -796.30479   0.85287655   -796.57206            1   -796.72238 
191   0.02314445 0.0096517998  0.020021513  0.012921212   0.21044334   0.61234805   0.61270564    3.3773452            0   -796.72203   0.14163926   -796.58628   0.28285605   -796.32763   0.42371602   -796.12047   0.56496539   -796.10968   0.70768744   -796.30497   0.85291898    -796.5722            1   -796.72238 
192  0.022818421 0.0095284259  0.019741984  0.012687201   0.21071086    0.6123044   0.61265316    3.3776909            0   -796.72204   0.14163179   -796.58632   0.28285417   -796.32766   0.42373443   -796.12048   0.56500978   -796.10974   0.70774663   -796.30515    0.8529627   -796.57234            1   -796.72239 
193  0.022485734 0.0094016201  0.019455834  0.012449765   0.21098762   0.61225941   0.61259922    3.3780414            0   -796.72206   0.14162421   -796.58637   0.28285246    -796.3277   0.42375366   -796.12048   0.56505573    -796.1098    0.7078077   -796.30535   0.85300771   -796.57248            1    -796.7224 
194  0.022149065 0.0092722677  0.019163157  0.012209118   0.21127337   0.61221309    0.6125438    3.3783964            0   -796.72207   0.14161654   -796.58641   0.28285095   -796.32774   0.42377376   -796.12048   0.56510326   -796.10986   0.70787066   -796.30554   0.85305402   -796.57262            1    -796.7224 
195  0.021834149  0.009137526  0.018864098  0.011965508   0.21157261   0.61216544   0.61248692    3.3787555            0   -796.72209    0.1416088   -796.58645   0.28284967   -796.32778   0.42379476   -796.12048    0.5651524   -796.10992    0.7079355   -796.30574   0.85310161   -796.57277            1   -796.72241 
196  0.021848424 0.0090076861  0.018559247   0.01171954   0.21191025   0.61211657   0.61242875    3.3791177            0    -796.7221   0.14160101   -796.58649   0.28284863   -796.32781   0.42381663   -796.12048   0.56520307   -796.10999   0.70800213   -796.30595   0.85315041   -796.57292            1   -796.72241 
197   0.02552642 0.0088492142  0.018254373  0.011475966   0.21267312   0.61206821   0.61237116    3.3794759            0   -796.72212   0.14159333   -796.58653   0.28284797   -796.32785   0.42383905   -796.12048    0.5652544   -796.11005   0.70806931   -796.30615   0.85319949   -796.57307            1   -796.72242 
198  0.043693414  0.016234139  0.018007304  0.011280644     0.215844   0.61203432   0.61232985     3.379764            0   -796.72213    0.1415872   -796.58656   0.28284738   -796.32788   0.42385752   -796.12048   0.56529638    -796.1101   0.70812428   -796.30632   0.85323955   -796.57319            1   -796.72243 
199  0.022262056 0.0087412752  0.017954889   0.01123916   0.21263138   0.61201862   0.61231258    3.3798232            0   -796.72213   0.14158594   -796.58657   0.28284746   -796.32788   0.42386156   -796.12048   0.56530547   -796.11011   0.70813598   -796.30636   0.85324804   -796.57322            1   -796.72243 
200   0.02067727 0.0087000043  0.017884745  0.011184096   0.21255692   0.61200677   0.61229865    3.3799036            0   -796.72214   0.14158423   -796.58658   0.28284748   -796.32789   0.42386697   -796.12048   0.56531758   -796.11013   0.70815168    -796.3064   0.85325946   -796.57326            1   -796.72243 
201  0.020584749  0.008667136  0.017808993  0.011124782   0.21263396   0.61199432   0.61228394    3.3799902            0   -796.72214    0.1415824   -796.58659   0.28284748    -796.3279   0.42387282   -796.12048   0.56533066   -796.11015   0.70816867   -796.30645   0.85327181   -796.57329            1   -796.72243 
202  0.020491089 0.0086302732  0.017727394  0.011061042   0.21271816   0.61198087   0.61226807    3.3800833            0   -796.72214   0.14158043    -796.5866   0.28284751   -796.32791   0.42387916   -796.12048    0.5653448   -796.11016     0.708187   -796.30651   0.85328514   -796.57333            1   -796.72243 
203  0.020390949 0.0085910207  0.017639969  0.010992928   0.21280856   0.61196644   0.61225105    3.3801827            0   -796.72215   0.14157834   -796.58661   0.28284757   -796.32792     0.423886   -796.12048      0.56536   -796.11018   0.70820669   -796.30657   0.85329943   -796.57338            1   -796.72243 
204  0.020284238 0.0085490513  0.017546747  0.010920496   0.21290525   0.61195101   0.61223288    3.3802884            0   -796.72215   0.14157613   -796.58662   0.28284766   -796.32793   0.42389333   -796.12048   0.56537626    -796.1102   0.70822772   -796.30663    0.8533147   -796.57342            1   -796.72243 
205  0.020171003 0.0085044772  0.017447757  0.010843808   0.21300824   0.61193459   0.61221355    3.3804003            0   -796.72216   0.14157379   -796.58663    0.2828478   -796.32794   0.42390118   -796.12048   0.56539359   -796.11022   0.70825011    -796.3067   0.85333093   -796.57347            1   -796.72244 
206   0.02005129 0.0084572601  0.017343031  0.010762927   0.21311755   0.61191717   0.61219307    3.3805181            0   -796.72216   0.14157134   -796.58664   0.28284799   -796.32795   0.42390954   -796.12048   0.56541199   -796.11025   0.70827386   -796.30677   0.85334814   -796.57352            1   -796.72244 
207  0.019925151 0.0084074326  0.017232601  0.010677923   0.21323322   0.61189876   0.61217144    3.3806419            0   -796.72217   0.14156878   -796.58666   0.28284823   -796.32796   0.42391843   -796.12047   0.56543148   -796.11027   0.70829897   -796.30684   0.85336631   -796.57357            1   -796.72244 
208  0.019792621 0.0083549873  0.017116504  0.010588865   0.21335526   0.61187934   0.61214865    3.3807715            0   -796.72217   0.14156612   -796.58667   0.28284854   -796.32797   0.42392786   -796.12047   0.56545205   -796.11029   0.70832544   -796.30692   0.85338545   -796.57363            1   -796.72244 
209  0.019653772 0.0082999455  0.016994778  0.010495828   0.21348371   0.61185892   0.61212471    3.3809068            0   -796.72218   0.14156335   -796.58668   0.28284893   -796.32798   0.42393783   -796.12047   0.56547371   -796.11032   0.70835327   -796.30701   0.85340556   -796.57369            1   -796.72244 
210  0.019508665 0.0082423063   0.01686746  0.010398889   0.21361859   0.61183749   0.61209962    3.3810476            0   -796.72218   0.14156049    -796.5867    0.2828494     -796.328   0.42394835   -796.12047   0.56549648   -796.11035   0.70838247   -796.30709   0.85342664   -796.57375            1   -796.72245 
211  0.019357362  0.008182091  0.016734594  0.010298126   0.21375994   0.61181505   0.61207339    3.3811938            0   -796.72219   0.14155755   -796.58671   0.28284997   -796.32801   0.42395945   -796.12047   0.56552036   -796.11038   0.70841304   -796.30718   0.85344868   -796.57382            1   -796.72245 
212   0.01919991 0.0081192987  0.016596222  0.010193623   0.21390779   0.61179159     0.612046    3.3813452            0    -796.7222   0.14155452   -796.58673   0.28285064   -796.32802   0.42397112   -796.12046   0.56554536   -796.11041   0.70844498   -796.30728   0.85347168   -796.57388            1   -796.72245 
213  0.019036389 0.0080539553  0.016452393  0.010085463   0.21406216   0.61176713   0.61201746    3.3815018            0    -796.7222   0.14155142   -796.58674   0.28285144   -796.32804   0.42398338   -796.12046   0.56557149   -796.11044   0.70847829   -796.30737   0.85349564   -796.57395            1   -796.72245 
214  0.018866867 0.0079860539  0.016303152 0.0099737352    0.2142231   0.61174163   0.61198778    3.3816633            0   -796.72221   0.14154826   -796.58676   0.28285236   -796.32805   0.42399624   -796.12046   0.56559875   -796.11047   0.70851298   -796.30748   0.85352057   -796.57403            1   -796.72246 
215  0.018691416 0.0079156351  0.016148543 0.0098585275   0.21439062   0.61171512   0.61195695    3.3818296            0   -796.72222   0.14154504   -796.58678   0.28285343   -796.32806   0.42400972   -796.12046   0.56562716    -796.1105   0.70854905   -796.30758   0.85354644    -796.5741            1   -796.72246 
216  0.018510106 0.0078426685  0.015988613 0.0097399314   0.21456478   0.61168757   0.61192497    3.3820005            0   -796.72222   0.14154178   -796.58679   0.28285466   -796.32808   0.42402383   -796.12045   0.56565672   -796.11054    0.7085865   -796.30769   0.85357328   -796.57418            1   -796.72246 
217  0.018323014 0.0077672424  0.015823424 0.0096180402   0.21474558     0.611659   0.61189184    3.3821758            0   -796.72223   0.14153847   -796.58681   0.28285607   -796.32809   0.42403859   -796.12045   0.56568744   -796.11057   0.70862533    -796.3078   0.85360106   -796.57426            1   -796.72246 
218   0.01813021 0.0076892368  0.015653029 0.0094929486    0.2149331   0.61162938   0.61185757    3.3823554            0   -796.72224   0.14153515   -796.58683   0.28285766    -796.3281   0.42405401   -796.12044   0.56571934   -796.11061   0.70866555   -796.30792    0.8536298   -796.57434            1   -796.72247 
219  0.017931804 0.0076089291  0.015477487 0.0093647532   0.21512731   0.61159872   0.61182216    3.3825391            0   -796.72225    0.1415318   -796.58684   0.28285946   -796.32812   0.42407011   -796.12044   0.56575242   -796.11065   0.70870715   -796.30804   0.85365947   -796.57442            1   -796.72247 
220  0.017727916 0.0075257926  0.015296857 0.0092335518   0.21532838   0.61156702   0.61178559    3.3827267            0   -796.72225   0.14152846   -796.58686   0.28286149   -796.32813   0.42408691   -796.12043    0.5657867   -796.11069   0.70875014   -796.30816   0.85369009   -796.57451            1   -796.72247 
221  0.017519165 0.0074410422  0.015111202 0.0090994451   0.21553607   0.61153426   0.61174789     3.382918            0   -796.72226   0.14152512   -796.58688   0.28286376   -796.32814   0.42410442   -796.12043   0.56582218   -796.11073   0.70879451   -796.30829   0.85372165    -796.5746            1   -796.72248 
222  0.017308453 0.0073519025  0.014920597 0.0089625421   0.21575137   0.61150044   0.61170904    3.3831128            0   -796.72227   0.14152181    -796.5869    0.2828663   -796.32815   0.42412266   -796.12042   0.56585888   -796.11077   0.70884027   -796.30842   0.85375413   -796.57469            1   -796.72248 
223  0.017117905 0.0072653576  0.014725192 0.0088230032   0.21597409   0.61146558   0.61166907    3.3833108            0   -796.72228   0.14151854   -796.58691   0.28286912   -796.32817   0.42414165   -796.12041   0.56589679   -796.11081    0.7088874   -796.30855   0.85378753   -796.57478            1   -796.72248 
224  0.017113746 0.0071636229  0.014525658 0.0086813574   0.21622131   0.61142981   0.61162814    3.3835111            0   -796.72229   0.14151533   -796.58693   0.28287225   -796.32818   0.42416134    -796.1204   0.56593581   -796.11086   0.70893575   -796.30869   0.85382172   -796.57488            1   -796.72248 
225  0.018516147 0.0070978459  0.014326739 0.0085409935   0.21657446   0.61139418   0.61158742    3.3837093            0   -796.72229   0.14151228   -796.58695    0.2828756   -796.32819   0.42418128    -796.1204   0.56597499    -796.1109   0.70898419   -796.30883   0.85385592   -796.57497            1   -796.72249 
226  0.026187885 0.0073663454  0.014160575 0.0084244218   0.21735466   0.61136524   0.61155426     3.383873            0    -796.7223   0.14150982   -796.58696   0.28287862    -796.3282   0.42419822   -796.12039   0.56600802   -796.11093   0.70902485   -796.30894   0.85388458   -796.57505            1   -796.72249 
227  0.016813892 0.0069816225  0.014098026 0.0083807397   0.21672289   0.61135231   0.61153975    3.3839341            0    -796.7223   0.14150895   -796.58697    0.2828798    -796.3282   0.42420469   -796.12039   0.56602054   -796.11095   0.70904028   -796.30899   0.85389539   -796.57508            1   -796.72249 
228  0.016319341 0.0069471641  0.014044193 0.0083432109   0.21675492   0.61134239   0.61152848    3.3839865            0    -796.7223   0.14150821   -796.58697   0.28288087    -796.3282   0.42421028   -796.12038   0.56603134   -796.11096   0.70905352   -796.30902   0.85390471   -796.57511            1   -796.72249 
229  0.016252932 0.0069206297  0.013985911 0.0083026455   0.21682258   0.61133171   0.61151634    3.3840431            0   -796.72231   0.14150741   -796.58697   0.28288204   -796.32821   0.42421636   -796.12038   0.56604306   -796.11098   0.70906787   -796.30906   0.85391479   -796.57513            1   -796.72249 
230  0.016182434 0.0068913709  0.013923073 0.0082589846    0.2168959   0.61132018   0.61150324     3.384104            0   -796.72231   0.14150658   -796.58698   0.28288333   -796.32821   0.42422294   -796.12038   0.56605572   -796.11099   0.70908336   -796.30911   0.85392568   -796.57516            1   -796.72249 
231  0.016106894 0.0068600842  0.013855698 0.0082122572   0.21697466   0.61130779   0.61148918    3.3841691            0   -796.72231    0.1415057   -796.58698   0.28288474   -796.32821   0.42423003   -796.12038   0.56606932     -796.111       0.7091   -796.30915   0.85393736   -796.57519            1   -796.72249 
232  0.016026312 0.0068266501  0.013783807 0.0081624971   0.21705888   0.61129454   0.61147415    3.3842384            0   -796.72231   0.14150478   -796.58699   0.28288627   -796.32822   0.42423764   -796.12037   0.56608388   -796.11102   0.70911778    -796.3092   0.85394983   -796.57523            1   -796.72249 
233   0.01594072 0.0067911122  0.013707422 0.0081097392   0.21714857   0.61128044   0.61145815    3.3843117            0   -796.72232   0.14150382   -796.58699   0.28288795   -796.32822   0.42424578   -796.12037   0.56609939   -796.11104    0.7091367   -796.30925   0.85396309   -796.57526            1    -796.7225 
234  0.015850148 0.0067534625  0.013626569 0.0080540205   0.21724375   0.61126547    0.6114412     3.384389            0   -796.72232   0.14150284     -796.587   0.28288976   -796.32822   0.42425444   -796.12036   0.56611586   -796.11106   0.70915677   -796.30931   0.85397715    -796.5753            1    -796.7225 
235  0.015754631 0.0067137167  0.013541274 0.0079953798   0.21734441   0.61124963   0.61142328    3.3844703            0   -796.72232   0.14150183   -796.58701   0.28289173   -796.32823   0.42426364   -796.12036    0.5661333   -796.11107   0.70917798   -796.30937   0.85399199   -796.57534            1    -796.7225 
236  0.015654204 0.0066718778  0.013451564  0.007933858   0.21745057   0.61123294    0.6114044    3.3845554            0   -796.72233    0.1415008   -796.58701   0.28289385   -796.32823   0.42427339   -796.12036   0.56615169   -796.11109   0.70920033   -796.30943   0.85400762   -796.57538            1    -796.7225 
237  0.015548907 0.0066279587  0.013357469 0.0078694976   0.21756225   0.61121537   0.61138456    3.3846443            0   -796.72233   0.14149976   -796.58702   0.28289614   -796.32823   0.42428369   -796.12035   0.56617106   -796.11112   0.70922382    -796.3095   0.85402404   -796.57543            1    -796.7225 
238  0.015438775 0.0065819654  0.013259018 0.0078023432   0.21767945   0.61119694   0.61136376    3.3847368            0   -796.72233   0.14149871   -796.58702   0.28289861   -796.32824   0.42429454   -796.12035   0.56619141   -796.11114   0.70924845   -796.30956   0.85404123   -796.57547            1    -796.7225 
239   0.01532385  0.006533911  0.013156246 0.0077324408   0.21780218   0.61117763     0.611342     3.384833            0   -796.72234   0.14149767   -796.58703   0.28290126   -796.32824   0.42430597   -796.12034   0.56621273   -796.11116   0.70927422   -796.30963    0.8540592   -796.57552            1    -796.7225 
240  0.015204172 0.0064838026  0.013049185 0.0076598381   0.21793046   0.61115745   0.61131927    3.3849327            0   -796.72234   0.14149663   -796.58704   0.28290411   -796.32824   0.42431798   -796.12033   0.56623503   -796.11118   0.70930114   -796.30971   0.85407795   -796.57557            1    -796.7225 
241  0.015079787 0.0064316554  0.012937871 0.0075845844    0.2180643    0.6111364   0.61129559    3.3850357            0   -796.72235    0.1414956   -796.58704   0.28290717   -796.32825   0.42433057   -796.12033   0.56625833   -796.11121   0.70932919   -796.30979   0.85409746   -796.57562            1   -796.72251 
242  0.014950739 0.0063774756  0.012822342 0.0075067304    0.2182037   0.61111446   0.61127095    3.3851421            0   -796.72235    0.1414946   -796.58705   0.28291044   -796.32825   0.42434376   -796.12032   0.56628262   -796.11124   0.70935838   -796.30987   0.85411775   -796.57568            1   -796.72251 
243  0.014817076 0.0063212833  0.012702635 0.0074263283    0.2183487   0.61109164   0.61124536    3.3852517            0   -796.72235   0.14149363   -796.58706   0.28291395   -796.32825   0.42435757   -796.12031   0.56630791   -796.11126   0.70938871   -796.30995    0.8541388   -796.57573            1   -796.72251 
244  0.014678846 0.0062630791  0.012578791 0.0073434315   0.21849929   0.61106794    0.6112188    3.3853643            0   -796.72236    0.1414927   -796.58706    0.2829177   -796.32825   0.42437199   -796.12031    0.5663342   -796.11129   0.70942017   -796.31003   0.85416061   -796.57579            1   -796.72251 
245  0.014536099 0.0062028969  0.012450849 0.0072580946   0.21865548   0.61104335   0.61119129      3.38548            0   -796.72236   0.14149182   -796.58707   0.28292171   -796.32826   0.42438705    -796.1203   0.56636151   -796.11132   0.70945277   -796.31012   0.85418317   -796.57585            1   -796.72251 
246  0.014388886 0.0061407142  0.012318851 0.0071703734   0.21881731   0.61101787   0.61116281    3.3855985            0   -796.72237   0.14149101   -796.58708   0.28292599   -796.32826   0.42440276   -796.12029   0.56638983   -796.11135    0.7094865   -796.31021   0.85420649   -796.57591            1   -796.72251 
247  0.014237265 0.0060766157  0.012182846 0.0070803249   0.21898476    0.6109915   0.61113338    3.3857197            0   -796.72237   0.14149026   -796.58708   0.28293056   -796.32826   0.42441912   -796.12028   0.56641918   -796.11138   0.70952137   -796.31031   0.85423056   -796.57597            1   -796.72251 
248  0.014081288 0.0060104736  0.012042881 0.0069880068   0.21915789   0.61096423     0.611103    3.3858436            0   -796.72238   0.14148959   -796.58709   0.28293544   -796.32826   0.42443616   -796.12027   0.56644955   -796.11141   0.70955737   -796.31041   0.85425537   -796.57604            1   -796.72252 
249  0.013921061 0.0059426164  0.011899003 0.0068934783   0.21933662   0.61093605   0.61107165      3.38597            0   -796.72238   0.14148902    -796.5871   0.28294063   -796.32826   0.42445388   -796.12026   0.56648097   -796.11145   0.70959449   -796.31051   0.85428092    -796.5761            1   -796.72252 
250  0.013756852 0.0058723406  0.011751266 0.0067968006   0.21952118   0.61090697   0.61103935    3.3860987            0   -796.72239   0.14148856    -796.5871   0.28294616   -796.32826   0.42447231   -796.12025   0.56651342   -796.11148   0.70963274   -796.31061    0.8543072   -796.57617            1   -796.72252 
251   0.01359063 0.0058014368  0.011599735 0.0066980442    0.2197112   0.61087698    0.6110061    3.3862297            0   -796.72239   0.14148822   -796.58711   0.28295205   -796.32826   0.42449146   -796.12024   0.56654693   -796.11151   0.70967211   -796.31071    0.8543342   -796.57624            1   -796.72252 
[...]
2432 0.0001723422 0.00011654305 5.9115085e-11 3.1699862e-11 0.0001723422   0.63409359   0.63409359    3.3972988            0   -796.72258   0.12594436   -796.61771    0.2518814   -796.38762   0.37781474   -796.17293   0.50375285   -796.08849   0.66917474   -796.23281   0.83458813   -796.53588            1   -796.72258 
2433 0.00017123988 0.00011579309 5.8767433e-11 3.1520505e-11 0.00017123988   0.63409359   0.63409359    3.3972984            0   -796.72258   0.12594426   -796.61771    0.2518813   -796.38762    0.3778147   -796.17293   0.50375289   -796.08849   0.66917472   -796.23281   0.83458811   -796.53588            1   -796.72258 
2434 0.00017006761 0.00011499559 5.838958e-11 3.1327402e-11 0.00017006761   0.63409359   0.63409359     3.397298            0   -796.72258   0.12594416   -796.61771   0.25188118   -796.38762   0.37781466   -796.17293   0.50375293   -796.08849    0.6691747   -796.23281   0.83458809   -796.53588            1   -796.72258 
2435 0.00016882584 0.00011415086 5.8003412e-11 3.1114866e-11 0.00016882584   0.63409359   0.63409359    3.3972976            0   -796.72258   0.12594405   -796.61771   0.25188107   -796.38762   0.37781462   -796.17293   0.50375297   -796.08849   0.66917468   -796.23281   0.83458808   -796.53588            1   -796.72258 
2436 0.00016751503 0.00011325922 5.7592846e-11 3.0891962e-11 0.00016751503   0.63409359   0.63409359    3.3972971            0   -796.72258   0.12594393   -796.61771   0.25188094   -796.38762   0.37781458   -796.17293   0.50375302   -796.08849   0.66917466   -796.23281   0.83458806   -796.53588            1   -796.72258 
2437 0.0001661357 0.00011232104 5.7143359e-11 3.0664104e-11 0.0001661357   0.63409359   0.63409359    3.3972967            0   -796.72258   0.12594382   -796.61771   0.25188081   -796.38762   0.37781453   -796.17293   0.50375307   -796.08849   0.66917464   -796.23281   0.83458804   -796.53588            1   -796.72258 
2438 0.00016468837 0.00011133668 5.6697171e-11 3.0424533e-11 0.00016468837   0.63409359   0.63409359    3.3972962            0   -796.72258   0.12594369   -796.61771   0.25188068   -796.38762   0.37781449   -796.17293   0.50375312   -796.08849   0.66917462   -796.23281   0.83458802   -796.53588            1   -796.72258 
2439 0.0001631736 0.00011030652 5.621493e-11 3.0169345e-11 0.0001631736   0.63409359   0.63409359    3.3972957            0   -796.72258   0.12594356   -796.61771   0.25188054   -796.38762   0.37781444   -796.17293   0.50375317   -796.08849    0.6691746   -796.23281     0.834588   -796.53588            1   -796.72258 
2440 0.00016159197 0.00010923099 5.5716641e-11 2.9919468e-11 0.00016159197   0.63409359   0.63409359    3.3972951            0   -796.72258   0.12594343   -796.61771    0.2518804   -796.38762    0.3778144   -796.17293   0.50375323   -796.08849   0.66917457   -796.23281   0.83458798   -796.53587            1   -796.72258 
2441 0.0001599441 0.00010811051 5.5213219e-11 2.9704627e-11 0.0001599441   0.63409359   0.63409359    3.3972946            0   -796.72258   0.12594329   -796.61771   0.25188025   -796.38762   0.37781435   -796.17293   0.50375328   -796.08849   0.66917455   -796.23281   0.83458796   -796.53587            1   -796.72258 
2442 0.00015823064 0.00010694552 5.4724315e-11 2.9569981e-11 0.00015823064   0.63409358   0.63409358     3.397294            0   -796.72258   0.12594315   -796.61771    0.2518801   -796.38762    0.3778143   -796.17293   0.50375334   -796.08849   0.66917452   -796.23281   0.83458794   -796.53587            1   -796.72258 
2443 0.00015645224 0.0001057365 5.4291255e-11 2.9767939e-11 0.00015645224   0.63409358   0.63409358    3.3972934            0   -796.72258   0.12594301   -796.61771   0.25187995   -796.38762   0.37781425   -796.17293    0.5037534   -796.08849    0.6691745    -796.2328   0.83458792   -796.53587            1   -796.72258 
2444 0.00015460961 0.00010448393 5.4179377e-11 3.1188492e-11 0.00015460961   0.63409358   0.63409358    3.3972927            0   -796.72258   0.12594286   -796.61771   0.25187979   -796.38762    0.3778142   -796.17293   0.50375347   -796.08849   0.66917447    -796.2328   0.83458789   -796.53587            1   -796.72258 
2445 0.00015270346 0.00010318832 5.546061e-11 3.7522929e-11 0.00015270346   0.63409358   0.63409358    3.3972921            0   -796.72258   0.12594271   -796.61771   0.25187963   -796.38762   0.37781416   -796.17293   0.50375354   -796.08849   0.66917444    -796.2328   0.83458787   -796.53587            1   -796.72258 
2446 0.00015073455 0.00010185018 6.3085193e-11 6.0294089e-11 0.00015073455   0.63409358   0.63409358    3.3972914            0   -796.72258   0.12594255   -796.61771   0.25187947   -796.38763   0.37781411   -796.17293    0.5037536   -796.08849   0.66917441    -796.2328   0.83458784   -796.53587            1   -796.72258 
2447 0.00014870366 0.00010047009 9.5820669e-11 1.2757753e-10 0.00014870366   0.63409358   0.63409358    3.3972907            0   -796.72258    0.1259424   -796.61771    0.2518793   -796.38763   0.37781406   -796.17293   0.50375367   -796.08849   0.66917438    -796.2328   0.83458782   -796.53587            1   -796.72258 
2448 0.00014661157 9.9048495e-05 2.039936e-10 3.122403e-10 0.00014661157   0.63409358   0.63409358      3.39729            0   -796.72258   0.12594224   -796.61771   0.25187914   -796.38763   0.37781401   -796.17293   0.50375375   -796.08849   0.66917435    -796.2328   0.83458779   -796.53587            1   -796.72258 
2449 0.00014445913 9.7586298e-05 5.190948e-10 8.2866684e-10 0.00014445913   0.63409358   0.63409358    3.3972892            0   -796.72258   0.12594208   -796.61771   0.25187897   -796.38763   0.37781397   -796.17292   0.50375382   -796.08849   0.66917432    -796.2328   0.83458776   -796.53587            1   -796.72258 
2450 0.00014224723 9.6083182e-05 1.4402405e-09 2.3432644e-09 0.00014224723   0.63409358   0.63409358    3.3972885            0   -796.72258   0.12594191   -796.61771    0.2518788   -796.38763   0.37781393   -796.17292    0.5037539   -796.08849   0.66917429    -796.2328   0.83458773   -796.53587            1   -796.72258 
2451 0.00013997714 9.4542548e-05 4.2593775e-09 7.0273935e-09 0.00013997714   0.63409358   0.63409358    3.3972877            0   -796.72258   0.12594175   -796.61771   0.25187863   -796.38763   0.37781388   -796.17292   0.50375398   -796.08849   0.66917425    -796.2328   0.83458771   -796.53587            1   -796.72258 
2452 0.00013765412 9.2957181e-05 1.3348948e-08 2.2287651e-08 0.00013765412   0.63409358   0.63409358    3.3972869            0   -796.72258   0.12594158   -796.61772   0.25187846   -796.38763   0.37781384   -796.17292   0.50375406   -796.08849   0.66917422    -796.2328   0.83458768   -796.53587            1   -796.72258 
2453 0.00013533161 9.1363415e-05 4.396578e-08 7.4177935e-08 0.00013533161   0.63409358   0.63409358     3.397286            0   -796.72258   0.12594142   -796.61772    0.2518783   -796.38763    0.3778138   -796.17292   0.50375414   -796.08849   0.66917418    -796.2328   0.83458765   -796.53587            1   -796.72258 
2454 0.00016058325 8.9758313e-05 1.4119004e-07 2.404662e-07 0.00013360231   0.63409358   0.63409358    3.3972852            0   -796.72258   0.12594126   -796.61772   0.25187814   -796.38763   0.37781377   -796.17292   0.50375422   -796.08849   0.66917415    -796.2328   0.83458762   -796.53587            1   -796.72258 
2455 0.00021722259 8.9015813e-05 1.892702e-07 3.2596234e-07 0.00013296146   0.63409357   0.63409357    3.3972848            0   -796.72258   0.12594118   -796.61772   0.25187806   -796.38763   0.37781375   -796.17292   0.50375426   -796.08849   0.66917413    -796.2328    0.8345876   -796.53587            1   -796.72258 
2456 0.00016886248 8.8915196e-05 1.4376607e-07 2.4714087e-07 0.00013231276   0.63409357   0.63409357    3.3972848            0   -796.72258   0.12594117   -796.61772   0.25187805   -796.38763   0.37781375   -796.17292   0.50375426   -796.08849   0.66917413    -796.2328    0.8345876   -796.53587            1   -796.72258 
2457 0.00013171705 8.8772283e-05 9.280939e-08 1.5902196e-07 0.00013171705   0.63409357   0.63409357    3.3972847            0   -796.72258   0.12594116   -796.61772   0.25187804   -796.38763   0.37781375   -796.17292   0.50375427   -796.08849   0.66917413    -796.2328    0.8345876   -796.53587            1   -796.72258 
2458 0.00013124876 8.8582731e-05 4.7251675e-08 8.0473338e-08 0.00013124876   0.63409357   0.63409357    3.3972846            0   -796.72258   0.12594114   -796.61772   0.25187802   -796.38763   0.37781375   -796.17292   0.50375428   -796.08849   0.66917412    -796.2328    0.8345876   -796.53587            1   -796.72258 
2459 0.00013086248 8.8351919e-05 1.785845e-08 3.0072673e-08 0.00013086248   0.63409357   0.63409357    3.3972845            0   -796.72258   0.12594112   -796.61772     0.251878   -796.38763   0.37781374   -796.17292   0.50375429   -796.08849   0.66917412    -796.2328   0.83458759   -796.53587            1   -796.72258 
2460 0.0001304695 8.8086948e-05 4.7723253e-09 7.8617018e-09 0.0001304695   0.63409357   0.63409357    3.3972844            0   -796.72258   0.12594109   -796.61772   0.25187797   -796.38763   0.37781374   -796.17292    0.5037543   -796.08849   0.66917411    -796.2328   0.83458759   -796.53587            1   -796.72258 
2461 0.00013003076 8.7788399e-05 7.9674272e-10 1.2451503e-09 0.00013003076   0.63409357   0.63409357    3.3972842            0   -796.72258   0.12594107   -796.61772   0.25187794   -796.38763   0.37781373   -796.17292   0.50375432   -796.08849   0.66917411    -796.2328   0.83458758   -796.53587            1   -796.72258 
2462 0.00012953967 8.7454908e-05 7.6903757e-11 8.4249664e-11 0.00012953967   0.63409357   0.63409357     3.397284            0   -796.72258   0.12594103   -796.61772   0.25187791   -796.38763   0.37781373   -796.17292   0.50375434   -796.08849    0.6691741    -796.2328   0.83458758   -796.53587            1   -796.72258 
2463 0.00012899594 8.7085859e-05 4.5381234e-11 2.4669326e-11 0.00012899594   0.63409357   0.63409357    3.3972838            0   -796.72258     0.125941   -796.61772   0.25187788   -796.38763   0.37781372   -796.17292   0.50375435   -796.08849   0.66917409    -796.2328   0.83458757   -796.53587            1   -796.72258 
2464 0.00012839977 8.6681231e-05 4.5071088e-11 2.4182928e-11 0.00012839977   0.63409357   0.63409357    3.3972836            0   -796.72258   0.12594096   -796.61772   0.25187784   -796.38763   0.37781371   -796.17292   0.50375438   -796.08849   0.66917408    -796.2328   0.83458756   -796.53587            1   -796.72258 
2465 0.00012775136 8.6241169e-05 4.4873292e-11 2.4049957e-11 0.00012775136   0.63409357   0.63409357    3.3972834            0   -796.72258   0.12594092   -796.61772    0.2518778   -796.38763   0.37781371   -796.17292    0.5037544   -796.08849   0.66917408    -796.2328   0.83458756   -796.53587            1   -796.72258 
2466 0.00012705096 8.5765843e-05 4.462553e-11 2.3949019e-11 0.00012705096   0.63409357   0.63409357    3.3972832            0   -796.72258   0.12594087   -796.61772   0.25187775   -796.38763    0.3778137   -796.17292   0.50375442   -796.08849   0.66917407    -796.2328   0.83458755   -796.53587            1   -796.72258 
2467 0.00012629885 8.5255436e-05 4.4400207e-11 2.3808115e-11 0.00012629885   0.63409357   0.63409357    3.3972829            0   -796.72258   0.12594083   -796.61772   0.25187771   -796.38763   0.37781369   -796.17292   0.50375445   -796.08849   0.66917405    -796.2328   0.83458754   -796.53587            1   -796.72258 
2468 0.00012549529 8.4710144e-05 4.4146264e-11 2.3676293e-11 0.00012549529   0.63409357   0.63409357    3.3972826            0   -796.72258   0.12594078   -796.61772   0.25187766   -796.38763   0.37781368   -796.17292   0.50375447   -796.08849   0.66917404    -796.2328   0.83458753   -796.53587            1   -796.72258 
2469 0.00012464059 8.4130181e-05 4.386091e-11 2.3532429e-11 0.00012464059   0.63409357   0.63409357    3.3972823            0   -796.72258   0.12594072   -796.61772   0.25187761   -796.38763   0.37781368   -796.17292    0.5037545   -796.08849   0.66917403    -796.2328   0.83458752   -796.53587            1   -796.72258 
2470 0.00012373509 8.3515774e-05 4.3575417e-11 2.3373268e-11 0.00012373509   0.63409357   0.63409357     3.397282            0   -796.72258   0.12594067   -796.61772   0.25187755   -796.38763   0.37781367   -796.17292   0.50375453   -796.08849   0.66917402    -796.2328   0.83458751   -796.53587            1   -796.72258 
2471 0.00012277913 8.2867164e-05 4.3260361e-11 2.3195276e-11 0.00012277913   0.63409357   0.63409357    3.3972817            0   -796.72258   0.12594061   -796.61772    0.2518775   -796.38763   0.37781366   -796.17292   0.50375457   -796.08849     0.669174    -796.2328    0.8345875   -796.53587            1   -796.72258 
2472 0.00012177308 8.2184607e-05 4.2937057e-11 2.3038127e-11 0.00012177308   0.63409357   0.63409357    3.3972813            0   -796.72258   0.12594055   -796.61772   0.25187744   -796.38763   0.37781365   -796.17292    0.5037546   -796.08849   0.66917399    -796.2328   0.83458748   -796.53587            1   -796.72258 
2473 0.00012071732 8.1468373e-05 4.2598414e-11 2.2834296e-11 0.00012071732   0.63409357   0.63409357    3.3972809            0   -796.72258   0.12594048   -796.61772   0.25187738   -796.38763   0.37781364   -796.17292   0.50375464   -796.08849   0.66917398    -796.2328   0.83458747   -796.53587            1   -796.72258 
2474 0.00011961227 8.0718746e-05 4.2243765e-11 2.2662134e-11 0.00011961227   0.63409357   0.63409357    3.3972805            0   -796.72258   0.12594042   -796.61772   0.25187731   -796.38763   0.37781364   -796.17292   0.50375468   -796.08849   0.66917396    -796.2328   0.83458746   -796.53587            1   -796.72258 
2475 0.00011845836 7.9936025e-05 4.1887402e-11 2.2474868e-11 0.00011845836   0.63409357   0.63409357    3.3972801            0   -796.72258   0.12594035   -796.61772   0.25187725   -796.38763   0.37781363   -796.17292   0.50375471   -796.08849   0.66917394    -796.2328   0.83458745   -796.53587            1   -796.72258 
2476 0.00011725603 7.9120524e-05 4.1496705e-11 2.2281033e-11 0.00011725603   0.63409357   0.63409357    3.3972797            0   -796.72258   0.12594028   -796.61772   0.25187718   -796.38763   0.37781362   -796.17292   0.50375476   -796.08849   0.66917393    -796.2328   0.83458743   -796.53587            1   -796.72258 
2477 0.00011600576 7.8272567e-05 4.1175849e-11 2.2119344e-11 0.00011600576   0.63409357   0.63409357    3.3972793            0   -796.72258   0.12594021   -796.61772   0.25187712   -796.38763   0.37781362   -796.17292    0.5037548   -796.08849   0.66917391    -796.2328   0.83458742   -796.53587            1   -796.72258 
2478 0.00011470804 7.7392497e-05 4.0932297e-11 2.2064173e-11 0.00011470804   0.63409357   0.63409357    3.3972788            0   -796.72258   0.12594013   -796.61772   0.25187705   -796.38763   0.37781361   -796.17292   0.50375484   -796.08849   0.66917389    -796.2328    0.8345874   -796.53587            1   -796.72258 
2479 0.00011336337 7.6480666e-05 4.1155066e-11 2.2452486e-11 0.00011336337   0.63409357   0.63409357    3.3972783            0   -796.72258   0.12594006   -796.61772   0.25187698   -796.38763   0.37781361   -796.17292   0.50375489   -796.08849   0.66917387    -796.2328   0.83458739   -796.53587            1   -796.72258 
2480 0.0001119723 7.5537443e-05 4.3313001e-11 2.4552599e-11 0.0001119723   0.63409357   0.63409357    3.3972778            0   -796.72258   0.12593998   -796.61772   0.25187691   -796.38763   0.37781361   -796.17292   0.50375493   -796.08849   0.66917385    -796.2328   0.83458737   -796.53587            1   -796.72258 
2481 0.00011053535 7.4563208e-05 5.3235888e-11 3.3061803e-11 0.00011053535   0.63409357   0.63409357    3.3972773            0   -796.72258    0.1259399   -796.61772   0.25187684   -796.38763   0.37781361   -796.17292   0.50375498   -796.08849   0.66917383    -796.2328   0.83458735   -796.53587            1   -796.72258 
2482 0.00010905311 7.355836e-05 8.9735935e-11 6.0795155e-11 0.00010905311   0.63409357   0.63409357    3.3972768            0   -796.72258   0.12593983   -796.61772   0.25187677   -796.38763   0.37781361   -796.17292   0.50375503   -796.08849   0.66917381   -796.23279   0.83458733   -796.53587            1   -796.72258 
2483 0.00010752617 7.2523294e-05 1.9844354e-10 1.3882935e-10 0.00010752617   0.63409357   0.63409357    3.3972762            0   -796.72258   0.12593975   -796.61772    0.2518767   -796.38763   0.37781361   -796.17292   0.50375509   -796.08849   0.66917379   -796.23279   0.83458732   -796.53587            1   -796.72258 
2484 0.00010595512 7.1458463e-05 5.0050256e-10 3.5257492e-10 0.00010595512   0.63409357   0.63409357    3.3972757            0   -796.72258   0.12593967   -796.61772   0.25187663   -796.38763   0.37781361   -796.17292   0.50375514   -796.08849   0.66917377   -796.23279    0.8345873   -796.53587            1   -796.72258 
2485 0.0001043406 7.0364219e-05 1.3598294e-09 9.6007795e-10 0.0001043406   0.63409357   0.63409357    3.3972751            0   -796.72258   0.12593958   -796.61772   0.25187656   -796.38763   0.37781361   -796.17292   0.50375519   -796.08849   0.66917375   -796.23279   0.83458728   -796.53587            1   -796.72258 
2486 0.00010268325 6.9241237e-05 3.925688e-09 2.7785194e-09 0.00010268325   0.63409357   0.63409357    3.3972745            0   -796.72258    0.1259395   -796.61772   0.25187649   -796.38763   0.37781362   -796.17292   0.50375525   -796.08849   0.66917372   -796.23279   0.83458726   -796.53587            1   -796.72258 
2487 0.00010098373 6.8089302e-05 1.1998167e-08 8.5195678e-09 0.00010098373   0.63409357   0.63409357    3.3972739            0   -796.72258   0.12593942   -796.61772   0.25187642   -796.38763   0.37781363   -796.17292   0.50375531   -796.08849    0.6691737   -796.23279   0.83458724   -796.53587            1   -796.72258 
2488 9.9242807e-05 6.6911019e-05 3.8751801e-08 2.7627564e-08 9.9242807e-05   0.63409357   0.63409357    3.3972732            0   -796.72258   0.12593934   -796.61772   0.25187635   -796.38763   0.37781364   -796.17292   0.50375536   -796.08849   0.66917368   -796.23279   0.83458722   -796.53587            1   -796.72258 
2489 9.7462122e-05 6.5700107e-05 1.3206303e-07 9.4601039e-08 9.7462122e-05   0.63409356   0.63409356    3.3972726            0   -796.72258   0.12593926   -796.61772   0.25187628   -796.38763   0.37781365   -796.17292   0.50375542   -796.08849   0.66917365   -796.23279    0.8345872   -796.53587            1   -796.72258 
2490 9.5654632e-05 6.448436e-05 4.7288931e-07 3.4058891e-07 9.5654632e-05   0.63409356   0.63409356    3.3972719            0   -796.72258   0.12593918   -796.61772   0.25187622   -796.38763   0.37781367   -796.17292   0.50375548   -796.08849   0.66917363   -796.23279   0.83458718   -796.53587            1   -796.72258 
2491 0.00010239099 6.3222525e-05 1.6974213e-06 1.2300228e-06 9.3990083e-05   0.63409356   0.63409356    3.3972713            0   -796.72258    0.1259391   -796.61772   0.25187616   -796.38763   0.37781368   -796.17292   0.50375554   -796.08849    0.6691736   -796.23279   0.83458716   -796.53587            1   -796.72258 
2492 0.00018804611 6.260383e-05 3.1448835e-06 2.2976211e-06 9.3215742e-05   0.63409356   0.63409356    3.3972709            0   -796.72258   0.12593906   -796.61772   0.25187613   -796.38763   0.37781369   -796.17292   0.50375558   -796.08849   0.66917359   -796.23279   0.83458715   -796.53587            1   -796.72258 
2493 0.00017542094 6.2581242e-05 2.9307587e-06 2.1402812e-06 9.3132145e-05   0.63409356   0.63409356    3.3972709            0   -796.72258   0.12593906   -796.61772   0.25187612   -796.38763    0.3778137   -796.17292   0.50375558   -796.08849   0.66917359   -796.23279   0.83458715   -796.53587            1   -796.72258 
