LAMMPS (12 Dec 2018)
Processor partition = 5
units         metal
atom_style    atomic
neighbor      1.0 bin
neigh_modify  every 1 delay 0 check yes

boundary        p p p
atom_modify map array sort 0 0.0
variable	u uloop 8

read_data   initial.lammps
  orthogonal box = (0 0 0) to (10.0025 12.3537 10.615)
  2 by 4 by 2 MPI processor grid
  reading atoms ...
  127 atoms
pair_style  nnp3v
pair_coeff  * * lammps-force.nnp Li P O
Reading potential file lammps-force.nnp with DATE: 20201105
min_style   quickmin
minimize    1.0e-6 1.0e-4 1000 10000
Neighbor list info ...
  update every 1 steps, delay 0 steps, check yes
  max neighbors/atom: 2000, page size: 100000
  master list distance cutoff = 8
  ghost atom cutoff = 8
  binsize = 4, bins = 3 4 3
  1 neighbor lists, perpetual/occasional/extra = 1 0 0
  (1) pair nnp3v, perpetual
      attributes: full, newton on
      pair build: full/bin/atomonly
      stencil: full/bin/3d
      bin: standard
Per MPI rank memory allocation (min/avg/max) = 2.736 | 2.736 | 2.736 Mbytes
Step Temp E_pair E_mol TotEng Press 
       0            0   -796.68047            0   -796.68047     13401.66 
       6  0.092325754   -796.68154            0   -796.68004    13408.421 
Loop time of 1.89649 on 16 procs for 6 steps with 127 atoms

98.1% CPU use with 16 MPI tasks x no OpenMP threads

Minimization stats:
  Stopping criterion = energy tolerance
  Energy initial, next-to-last, final = 
        -796.680469343     -796.681189813     -796.681544239
  Force two-norm initial, final = 0.292034 0.283352
  Force max component initial, final = 0.0445202 0.0435203
  Final line search alpha, max atom move = 0 0
  Iterations, force evaluations = 6 6

MPI task timing breakdown:
Section |  min time  |  avg time  |  max time  |%varavg| %total
---------------------------------------------------------------
Pair    | 1.5907     | 1.8121     | 1.8915     |   4.9 | 95.55
Neigh   | 0          | 0          | 0          |   0.0 |  0.00
Comm    | 0.0045402  | 0.083911   | 0.30525    |  23.0 |  4.42
Output  | 0          | 0          | 0          |   0.0 |  0.00
Modify  | 0          | 0          | 0          |   0.0 |  0.00
Other   |            | 0.000498   |            |       |  0.03

Nlocal:    7.9375 ave 8 max 7 min
Histogram: 1 0 0 0 0 0 0 0 0 15
Nghost:    819.812 ave 824 max 816 min
Histogram: 4 0 0 0 0 8 0 1 1 2
Neighs:    0 ave 0 max 0 min
Histogram: 16 0 0 0 0 0 0 0 0 0
FullNghs:  1602 ave 1623 max 1420 min
Histogram: 1 0 0 0 0 0 0 0 1 14

Total # of neighbors = 25632
Ave neighs/atom = 201.827
Neighbor list builds = 0
Dangerous builds = 0

reset_timestep	0

#timestep   0.001
#velocity   all create 1000 87287

dump   1 all atom 1 dump.neb.$u
dump   1 all atom 1 dump.neb.6
fix    2 all neb 1.0 parallel neigh
dump   2 all atom 1 test.dump

thermo          1
neb 0.00000000001 0.0 10000 5000 1 final final.lammps
Per MPI rank memory allocation (min/avg/max) = 4.736 | 4.737 | 4.737 Mbytes
Step Temp E_pair E_mol TotEng Press 
       0            0   -795.12829            0   -795.12829     14110.71 
       1    1.8673952   -795.12829            0   -795.09788    14135.477 
       2     8.620229   -795.19151            0   -795.05112    14241.032 
       3    21.007326   -795.31067            0   -794.96853    14456.634 
       4    38.594663   -795.46735            0   -794.83877     14805.88 
       5    58.477048   -795.63333            0   -794.68092    15260.159 
       6    73.645085   -795.78008            0   -794.58064    15655.586 
       7    77.330188   -795.89423            0   -794.63477    15720.058 
       8    74.550725   -795.97943            0   -794.76524    15425.924 
       9    75.245467   -796.04375            0   -794.81825    15136.026 
      10    77.797482    -796.0933            0   -794.82623    15030.657 
      11    80.337444   -796.13205            0   -794.82361    15060.411 
      12     75.12096   -796.15629            0   -794.93281     14850.59 
      13    4.3051229    -796.1627            0   -796.09258    13975.648 
      14    3.4480476   -796.16789            0   -796.11173    14003.682 
      15    2.9970049   -796.17275            0   -796.12394    13996.306 
      16    3.3871905   -796.17777            0   -796.12261    14003.413 
      17    3.8131874   -796.18291            0   -796.12081    14010.099 
      18    4.2408776   -796.18813            0   -796.11906    14017.434 
      19    4.6732522   -796.19338            0   -796.11727    14024.859 
      20    5.1020815   -796.19865            0   -796.11555    14032.757 
      21    5.5266584   -796.20388            0   -796.11386    14040.665 
      22    5.9404435   -796.20905            0    -796.1123    14048.933 
      23    6.3429358   -796.21413            0   -796.11083    14056.846 
      24    6.7265153   -796.21911            0   -796.10956    14065.255 
      25    7.0896778   -796.22395            0   -796.10849    14072.261 
      26    7.4047994   -796.22864            0   -796.10804    14081.389 
      27    7.5497332   -796.23311            0   -796.11015     14081.71 
      28    6.6701013   -796.23696            0   -796.12832    14085.092 
      29     2.412219   -796.23897            0   -796.19968    14012.668 
      30   0.27911753   -796.23966            0   -796.23512    13990.261 
      31   0.33195044   -796.24044            0   -796.23503      13994.1 
      32   0.39124478   -796.24128            0   -796.23491    13996.103 
      33   0.46076214    -796.2422            0   -796.23469    13997.813 
      34   0.53508611   -796.24318            0   -796.23446     13999.59 
      35   0.61340609   -796.24421            0   -796.23422    14001.471 
      36   0.69529747   -796.24531            0   -796.23398    14003.453 
      37   0.78031912   -796.24645            0   -796.23374    14005.535 
      38   0.86801011   -796.24764            0    -796.2335    14007.711 
      39   0.95790019   -796.24887            0   -796.23326    14009.977 
      40    1.0495106   -796.25013            0   -796.23304    14012.328 
      41    1.1423594   -796.25143            0   -796.23282    14014.755 
      42    1.2359643   -796.25275            0   -796.23262    14017.249 
      43    1.3298442    -796.2541            0   -796.23244    14019.787 
      44    1.4235164   -796.25547            0   -796.23228    14022.389 
      45    1.5165211   -796.25685            0   -796.23215    14025.036 
      46    1.6084234   -796.25824            0   -796.23204    14027.734 
      47    1.6987764   -796.25964            0   -796.23197    14030.484 
      48    1.7871879   -796.26104            0   -796.23193     14033.28 
      49    1.8732377   -796.26244            0   -796.23193    14036.121 
      50    1.9566171   -796.26385            0   -796.23198    14039.005 
      51    2.0368853   -796.26525            0   -796.23207     14041.93 
      52    2.1139714   -796.26664            0   -796.23221    14044.894 
      53    2.1870399   -796.26803            0   -796.23241    14047.891 
      54    2.2574034   -796.26941            0   -796.23265    14050.942 
      55    2.3202357   -796.27079            0     -796.233     14053.96 
      56    2.3916016   -796.27215            0    -796.2332    14057.278 
      57    2.4256343   -796.27349            0   -796.23398    14059.638 
      58    2.7881416   -796.27447            0   -796.22906    14069.384 
      59   0.90140729   -796.27501            0   -796.26033    14041.316 
      60  0.049270725   -796.27516            0   -796.27436    14030.885 
      61  0.045031688   -796.27533            0   -796.27459    14031.467 
      62  0.050409199   -796.27551            0   -796.27468    14032.014 
      63  0.059710634    -796.2757            0   -796.27473    14032.563 
      64  0.070327101   -796.27592            0   -796.27477    14033.134 
      65   0.08177926   -796.27615            0   -796.27482    14033.735 
      66  0.093963269    -796.2764            0   -796.27487    14034.373 
      67   0.10682705   -796.27667            0   -796.27493     14035.05 
      68   0.12032656   -796.27695            0   -796.27499    14035.768 
      69   0.13441691   -796.27725            0   -796.27506    14036.526 
      70   0.14905169   -796.27757            0   -796.27514    14037.327 
      71   0.16418318    -796.2779            0   -796.27522    14038.168 
      72   0.17976268   -796.27825            0   -796.27532     14039.05 
      73    0.1957407   -796.27861            0   -796.27542    14039.971 
      74   0.21206722   -796.27899            0   -796.27553     14040.93 
      75   0.22869197   -796.27938            0   -796.27566    14041.927 
      76   0.24556475   -796.27979            0   -796.27579    14042.961 
      77   0.26263598   -796.28021            0   -796.27593     14044.03 
      78   0.27985633   -796.28065            0   -796.27609    14045.132 
      79   0.29717774    -796.2811            0   -796.27626    14046.266 
      80    0.3145536   -796.28156            0   -796.27644    14047.431 
      81   0.33193816   -796.28204            0   -796.27663    14048.626 
      82   0.34928738   -796.28253            0   -796.27684     14049.85 
      83   0.36656017   -796.28303            0   -796.27706    14051.103 
      84   0.38371563   -796.28355            0    -796.2773    14052.383 
      85    0.4007205   -796.28408            0   -796.27755     14053.68 
      86   0.41752778   -796.28462            0   -796.27782    14055.001 
      87   0.43414182   -796.28518            0   -796.27811    14056.349 
      88   0.45042285   -796.28575            0   -796.27841    14057.691 
      89   0.46671453   -796.28633            0   -796.27873    14059.136 
      90   0.48133077   -796.28693            0   -796.27909    14060.275 
      91   0.49677752   -796.28754            0   -796.27945    14062.668 
      92   0.44422521   -796.28806            0   -796.28082    14059.345 
      93  0.080309187   -796.28821            0    -796.2869    14057.948 
      94  0.019583999   -796.28833            0   -796.28801    14057.033 
      95  0.022304672   -796.28845            0   -796.28809    14057.334 
      96   0.02569113   -796.28859            0   -796.28817    14057.643 
      97  0.029298222   -796.28874            0   -796.28826    14057.972 
      98   0.03310683   -796.28889            0   -796.28836    14058.321 
      99  0.037110688   -796.28906            0   -796.28846     14058.69 
     100  0.041300639   -796.28924            0   -796.28857    14059.079 
     101  0.045668135   -796.28943            0   -796.28868    14059.488 
     102  0.050203914   -796.28962            0   -796.28881    14059.918 
     103  0.054898791   -796.28983            0   -796.28894    14060.366 
     104  0.059743128   -796.29005            0   -796.28907    14060.834 
     105  0.064727374   -796.29028            0   -796.28922     14061.32 
     106  0.069841712   -796.29051            0   -796.28938    14061.824 
     107  0.075076402   -796.29076            0   -796.28954    14062.345 
     108  0.080421574   -796.29102            0   -796.28971    14062.883 
     109  0.085867722   -796.29128            0   -796.28989    14063.439 
     110  0.091404729   -796.29156            0   -796.29007    14064.011 
     111  0.097023599   -796.29185            0   -796.29027    14064.601 
     112   0.10271361   -796.29215            0   -796.29047    14065.206 
     113   0.10846829   -796.29245            0   -796.29069    14065.829 
     114   0.11427225   -796.29277            0   -796.29091    14066.464 
     115   0.12013179    -796.2931            0   -796.29114    14067.119 
     116   0.12600002   -796.29343            0   -796.29138    14067.773 
     117   0.13197354   -796.29378            0   -796.29163    14068.482 
     118   0.13775028   -796.29414            0   -796.29189    14069.073 
     119   0.14431087    -796.2945            0   -796.29215    14070.086 
     120   0.14946905   -796.29488            0   -796.29244    14069.802 
     121    0.1682997   -796.29522            0   -796.29247    14073.763 
     122   0.10136061   -796.29538            0   -796.29373    14068.695 
     123 0.0055965296   -796.29542            0   -796.29533    14068.377 
     124 0.0049949995   -796.29547            0   -796.29539    14069.124 
     125 0.0045893256   -796.29553            0   -796.29546    14069.563 
     126 0.0051491943    -796.2956            0   -796.29551    14069.804 
     127  0.006165303   -796.29567            0   -796.29557     14069.97 
     128  0.007343936   -796.29575            0   -796.29563    14070.125 
     129 0.0086292694   -796.29584            0    -796.2957     14070.29 
     130  0.010012254   -796.29593            0   -796.29577    14070.467 
     131  0.011489763   -796.29604            0   -796.29585    14070.657 
     132   0.01305945   -796.29615            0   -796.29593     14070.86 
     133  0.014718868   -796.29626            0   -796.29602    14071.075 
     134  0.016465435   -796.29639            0   -796.29612    14071.304 
     135  0.018296455   -796.29652            0   -796.29622    14071.545 
     136  0.020209123   -796.29666            0   -796.29633    14071.799 
     137  0.022200532   -796.29681            0   -796.29645    14072.066 
     138  0.024267676   -796.29696            0   -796.29657    14072.345 
     139  0.026407471   -796.29712            0   -796.29669    14072.637 
     140  0.028616755   -796.29729            0   -796.29683    14072.941 
     141   0.03089231   -796.29747            0   -796.29697    14073.256 
     142  0.033230846   -796.29765            0   -796.29711    14073.584 
     143  0.035629009   -796.29784            0   -796.29726    14073.924 
     144  0.038083428   -796.29804            0   -796.29742    14074.275 
     145  0.040590698   -796.29825            0   -796.29759    14074.637 
     146  0.043147503   -796.29846            0   -796.29776    14075.009 
     147  0.045750235   -796.29868            0   -796.29794    14075.394 
     148  0.048395503   -796.29891            0   -796.29812    14075.789 
     149  0.051079737   -796.29914            0   -796.29831    14076.196 
     150   0.05379958   -796.29938            0   -796.29851    14076.613 
     151  0.056551538   -796.29963            0   -796.29871    14077.041 
     152  0.059331678   -796.29989            0   -796.29892    14077.478 
     153  0.062138932   -796.30015            0   -796.29914     14077.93 
     154  0.064961083   -796.30042            0   -796.29936    14078.382 
     155  0.067834543   -796.30069            0   -796.29959    14078.878 
     156  0.070671138   -796.30098            0   -796.29982    14079.269 
     157  0.074570862   -796.30126            0   -796.30005    14080.095 
     158  0.084085837   -796.30154            0   -796.30017    14079.512 
     159  0.085642541   -796.30168            0   -796.30029    14082.054 
     160 0.0018289501    -796.3017            0   -796.30167    14080.624 
     161 0.0022577052   -796.30173            0   -796.30169    14080.291 
     162 0.0022412822   -796.30176            0   -796.30172    14080.007 
     163  0.001947011   -796.30179            0   -796.30176    14079.841 
     164 0.0019226416   -796.30184            0    -796.3018    14079.804 
     165 0.0022455387   -796.30188            0   -796.30185    14079.849 
     166 0.0027166456   -796.30194            0   -796.30189    14079.932 
     167   0.00324833   -796.30199            0   -796.30194    14080.029 
     168 0.0038259262   -796.30206            0     -796.302    14080.137 
     169 0.0044481807   -796.30213            0   -796.30205    14080.252 
     170 0.0051143872    -796.3022            0   -796.30212    14080.377 
     171 0.0058236855   -796.30228            0   -796.30219     14080.51 
     172 0.0065751824   -796.30237            0   -796.30226    14080.652 
     173  0.007367908   -796.30246            0   -796.30234    14080.803 
     174 0.0082008523   -796.30255            0   -796.30242    14080.962 
     175 0.0090729559   -796.30265            0    -796.3025     14081.13 
     176 0.0099831062   -796.30276            0    -796.3026    14081.307 
     177  0.010930152   -796.30287            0   -796.30269    14081.492 
     178  0.011912898   -796.30299            0   -796.30279    14081.685 
     179  0.012930117   -796.30311            0    -796.3029    14081.887 
     180  0.013980514   -796.30324            0   -796.30301    14082.098 
     181  0.015062772   -796.30337            0   -796.30312    14082.317 
     182  0.016175535    -796.3035            0   -796.30324    14082.544 
     183  0.017317417   -796.30365            0   -796.30337     14082.78 
     184  0.018486998   -796.30379            0   -796.30349    14083.024 
     185  0.019682834   -796.30395            0   -796.30363    14083.276 
     186   0.02090348   -796.30411            0   -796.30376    14083.536 
     187  0.022147404   -796.30427            0   -796.30391    14083.804 
     188  0.023413094   -796.30444            0   -796.30405     14084.08 
     189  0.024698961   -796.30461            0   -796.30421    14084.364 
     190  0.026003564   -796.30479            0   -796.30436    14084.656 
     191  0.027324982   -796.30497            0   -796.30452    14084.955 
     192   0.02866262   -796.30515            0   -796.30469    14085.262 
     193  0.030011562   -796.30535            0   -796.30486    14085.573 
     194  0.031379666   -796.30554            0   -796.30503    14085.903 
     195  0.032725235   -796.30574            0   -796.30521    14086.203 
     196  0.034094812   -796.30595            0   -796.30539    14086.639 
     197  0.034302848   -796.30615            0   -796.30559    14086.602 
     198  0.027203272   -796.30632            0   -796.30588    14087.822 
     199 0.0027177382   -796.30636            0   -796.30631    14086.921 
     200 0.0020787758    -796.3064            0   -796.30637    14086.827 
     201 0.0023080858   -796.30645            0   -796.30642    14086.925 
     202 0.0026501142   -796.30651            0   -796.30647    14087.013 
     203 0.0030189738   -796.30657            0   -796.30652     14087.11 
     204 0.0034092246   -796.30663            0   -796.30658    14087.212 
     205 0.0038213911    -796.3067            0   -796.30664    14087.321 
     206 0.0042545767   -796.30677            0    -796.3067    14087.436 
     207 0.0047084769   -796.30684            0   -796.30677    14087.557 
     208 0.0051824202   -796.30692            0   -796.30684    14087.684 
     209 0.0056759466   -796.30701            0   -796.30691    14087.818 
     210 0.0061883702   -796.30709            0   -796.30699    14087.957 
     211 0.0067191707   -796.30718            0   -796.30707    14088.103 
     212 0.0072676116   -796.30728            0   -796.30716    14088.255 
     213 0.0078331652   -796.30737            0   -796.30725    14088.413 
     214 0.0084149809   -796.30748            0   -796.30734    14088.577 
     215 0.0090126157   -796.30758            0   -796.30743    14088.747 
     216 0.0096249533   -796.30769            0   -796.30753    14088.923 
     217   0.01025196    -796.3078            0   -796.30764    14089.105 
     218  0.010891592   -796.30792            0   -796.30774    14089.292 
     219  0.011545654   -796.30804            0   -796.30785    14089.488 
     220   0.01220795   -796.30816            0   -796.30796    14089.682 
     221  0.012889995   -796.30829            0   -796.30808      14089.9 
     222  0.013562503   -796.30842            0    -796.3082    14090.081 
     223  0.014303406   -796.30855            0   -796.30832    14090.376 
     224  0.014958667   -796.30869            0   -796.30845    14090.384 
     225   0.01639856   -796.30883            0   -796.30856    14091.205 
     226  0.017939664   -796.30894            0   -796.30865    14090.011 
     227  0.007596115   -796.30899            0   -796.30886    14091.108 
     228 0.0013952668   -796.30902            0     -796.309    14090.858 
     229  0.001388707   -796.30906            0   -796.30904    14090.935 
     230  0.001596665   -796.30911            0   -796.30908    14091.003 
     231 0.0018215075   -796.30915            0   -796.30912    14091.079 
     232 0.0020596226    -796.3092            0   -796.30917    14091.159 
     233  0.002311284   -796.30925            0   -796.30922    14091.244 
     234 0.0025759936   -796.30931            0   -796.30927    14091.333 
     235 0.0028535408   -796.30937            0   -796.30932    14091.428 
     236 0.0031435421   -796.30943            0   -796.30938    14091.527 
     237 0.0034457043    -796.3095            0   -796.30944    14091.632 
     238 0.0037596366   -796.30956            0    -796.3095    14091.741 
     239 0.0040850075   -796.30963            0   -796.30957    14091.855 
     240 0.0044213961   -796.30971            0   -796.30964    14091.974 
     241 0.0047684552   -796.30979            0   -796.30971    14092.098 
     242 0.0051257141   -796.30987            0   -796.30978    14092.226 
     243 0.0054928449   -796.30995            0   -796.30986    14092.359 
     244 0.0058692754   -796.31003            0   -796.30994    14092.497 
     245 0.0062548029   -796.31012            0   -796.31002    14092.639 
     246  0.006648533   -796.31021            0   -796.31011    14092.786 
     247 0.0070508672   -796.31031            0   -796.31019    14092.938 
     248 0.0074595398   -796.31041            0   -796.31028    14093.092 
     249 0.0078780483   -796.31051            0   -796.31038    14093.257 
     250 0.0082968007   -796.31061            0   -796.31047    14093.409 
     251  0.008739407   -796.31071            0   -796.31057    14093.611 
     252 0.0091542906   -796.31082            0   -796.31067    14093.697 
     253 0.0097809098   -796.31093            0   -796.31077    14094.119 
     254  0.010716677   -796.31104            0   -796.31086     14093.62 
     255  0.012354189   -796.31111            0   -796.31091    14095.102 
     256 0.0021009101   -796.31113            0    -796.3111    14094.372 
     257 0.00079119205   -796.31116            0   -796.31115    14094.184 
     258 0.00072018987   -796.31119            0   -796.31118    14094.218 
     259 0.00084010508   -796.31122            0   -796.31121    14094.269 
     260  0.000968388   -796.31125            0   -796.31124    14094.323 
     261 0.0011052899   -796.31129            0   -796.31127    14094.381 
     262 0.0012505779   -796.31133            0   -796.31131    14094.444 
     263 0.0014041029   -796.31137            0   -796.31135     14094.51 
     264 0.0015656834   -796.31141            0   -796.31139     14094.58 
     265 0.0017351373   -796.31146            0   -796.31143    14094.653 
     266 0.0019122681   -796.31151            0   -796.31148    14094.731 
     267 0.0020968732   -796.31156            0   -796.31153    14094.812 
     268 0.0022887391   -796.31161            0   -796.31158    14094.897 
     269 0.0024876455   -796.31167            0   -796.31163    14094.986 
     270 0.0026933609   -796.31173            0   -796.31168    14095.078 
     271 0.0029056589   -796.31179            0   -796.31174    14095.173 
     272 0.0031242839   -796.31185            0    -796.3118    14095.272 
     273 0.0033489868   -796.31192            0   -796.31186    14095.374 
     274 0.0035794986   -796.31198            0   -796.31192     14095.48 
     275 0.0038155615   -796.31205            0   -796.31199    14095.589 
     276 0.0040568835   -796.31212            0   -796.31206    14095.702 
     277  0.004303215    -796.3122            0   -796.31213    14095.818 
     278 0.0045542092   -796.31227            0    -796.3122    14095.938 
     279 0.0048096921   -796.31235            0   -796.31227    14096.061 
     280 0.0050690961   -796.31243            0   -796.31235    14096.187 
     281 0.0053327383   -796.31252            0   -796.31243    14096.317 
     282 0.0055987758    -796.3126            0   -796.31251    14096.447 
     283 0.0058711244   -796.31269            0   -796.31259    14096.589 
     284 0.0061387495   -796.31278            0   -796.31268    14096.708 
     285 0.0064452296   -796.31287            0   -796.31276    14096.911 
     286 0.0067781159   -796.31296            0   -796.31285     14096.86 
     287 0.0082047071   -796.31305            0   -796.31291    14097.609 
     288 0.0059072802   -796.31309            0   -796.31299    14096.797 
     289 0.00043328559    -796.3131            0   -796.31309    14096.948 
     290 0.00030282257   -796.31311            0   -796.31311    14097.093 
     291 0.00026277497   -796.31313            0   -796.31312    14097.163 
     292 0.00030205313   -796.31315            0   -796.31314    14097.202 
     293 0.00035978254   -796.31317            0   -796.31316    14097.235 
     294 0.00042369777   -796.31319            0   -796.31318     14097.27 
     295 0.00049268967   -796.31321            0   -796.31321    14097.307 
     296 0.00056660416   -796.31324            0   -796.31323    14097.348 
     297 0.0006453554   -796.31327            0   -796.31326    14097.391 
     298 0.00072885495    -796.3133            0   -796.31329    14097.437 
     299 0.00081700866   -796.31333            0   -796.31332    14097.486 
     300 0.00090971692   -796.31336            0   -796.31335    14097.538 
     301 0.0010068746    -796.3134            0   -796.31338    14097.592 
     302 0.0011083714   -796.31344            0   -796.31342     14097.65 
     303 0.0012140917   -796.31348            0   -796.31346     14097.71 
     304 0.0013239148   -796.31352            0    -796.3135    14097.773 
     305 0.0014377153   -796.31356            0   -796.31354    14097.839 
     306 0.0015553627    -796.3136            0   -796.31358    14097.907 
     307 0.0016767222   -796.31365            0   -796.31362    14097.978 
     308 0.0018016543    -796.3137            0   -796.31367    14098.052 
     309 0.0019300153   -796.31375            0   -796.31372    14098.128 
     310 0.0020616573    -796.3138            0   -796.31377    14098.207 
     311 0.0021964281   -796.31385            0   -796.31382    14098.289 
     312 0.0023341719   -796.31391            0   -796.31387    14098.373 
     313 0.0024747296   -796.31397            0   -796.31393     14098.46 
     314 0.0026179387   -796.31402            0   -796.31398    14098.549 
     315 0.0027636326   -796.31409            0   -796.31404    14098.641 
     316 0.0029116437   -796.31415            0    -796.3141    14098.735 
     317 0.0030617955   -796.31421            0   -796.31416    14098.831 
     318 0.0032139246   -796.31428            0   -796.31422     14098.93 
     319 0.0033678219   -796.31434            0   -796.31429    14099.032 
     320 0.0035234013   -796.31441            0   -796.31435    14099.135 
     321 0.0036801962   -796.31448            0   -796.31442     14099.24 
     322 0.0038389503   -796.31455            0   -796.31449    14099.351 
     323 0.0039965085   -796.31463            0   -796.31456    14099.451 
     324 0.0041657068    -796.3147            0   -796.31463    14099.598 
     325 0.0043335422   -796.31478            0   -796.31471    14099.582 
     326 0.0050078091   -796.31485            0   -796.31477    14100.175 
     327 0.0044337775   -796.31489            0   -796.31482    14099.334 
     328 2.8108281e-05   -796.31489            0   -796.31489     14099.33 
     329 5.3387394e-05   -796.31489            0   -796.31489    14099.416 
     330 7.7984052e-05    -796.3149            0    -796.3149    14099.523 
     331 9.1907508e-05    -796.3149            0    -796.3149    14099.635 
     332 9.1672625e-05   -796.31491            0   -796.31491    14099.732 
     333 9.1178907e-05   -796.31492            0   -796.31492    14099.798 
     334 0.0001034027   -796.31493            0   -796.31493    14099.838 
     335 0.00012557902   -796.31494            0   -796.31494    14099.864 
     336 0.00015257869   -796.31496            0   -796.31495    14099.886 
     337 0.00018258728   -796.31497            0   -796.31497    14099.909 
     338 0.00021525155   -796.31499            0   -796.31498    14099.933 
     339 0.00025048939     -796.315            0     -796.315    14099.959 
     340 0.00028825521   -796.31502            0   -796.31502    14099.987 
     341 0.00032850703   -796.31504            0   -796.31504    14100.017 
     342 0.00037120014   -796.31507            0   -796.31506    14100.049 
     343 0.00041628692   -796.31509            0   -796.31508    14100.083 
     344 0.00046371691   -796.31511            0   -796.31511    14100.119 
     345 0.0005134369   -796.31514            0   -796.31513    14100.157 
     346 0.00056539096   -796.31517            0   -796.31516    14100.197 
     347 0.00061952046    -796.3152            0   -796.31519    14100.239 
     348 0.00067576422   -796.31523            0   -796.31522    14100.283 
     349 0.00073405856   -796.31526            0   -796.31525    14100.329 
     350 0.00079433735   -796.31529            0   -796.31528    14100.376 
     351 0.00085653217   -796.31532            0   -796.31531    14100.426 
     352 0.00092057218   -796.31536            0   -796.31534    14100.477 
     353 0.00098638422    -796.3154            0   -796.31538     14100.53 
     354 0.0010538931   -796.31543            0   -796.31542    14100.585 
     355 0.0011230216   -796.31547            0   -796.31546    14100.642 
     356 0.0011936904   -796.31551            0   -796.31549    14100.701 
     357 0.0012658182   -796.31556            0   -796.31554    14100.761 
     358  0.001339322    -796.3156            0   -796.31558    14100.823 
     359 0.0014141168   -796.31564            0   -796.31562    14100.887 
     360 0.0014901176   -796.31569            0   -796.31566    14100.953 
     361 0.0015672338   -796.31574            0   -796.31571     14101.02 
     362 0.0016453828   -796.31578            0   -796.31576    14101.089 
     363 0.0017244551   -796.31583            0   -796.31581    14101.159 
     364 0.0018044123   -796.31588            0   -796.31586    14101.231 
     365 0.0018850012   -796.31594            0   -796.31591    14101.304 
     366 0.0019666538   -796.31599            0   -796.31596    14101.382 
     367 0.0020477301   -796.31604            0   -796.31601    14101.451 
     368 0.0021363639    -796.3161            0   -796.31606    14101.556 
     369 0.0022415714   -796.31616            0   -796.31612    14101.537 
     370 0.0028071962   -796.31621            0   -796.31616     14101.97 
     371 0.0023087913   -796.31623            0   -796.31619    14101.461 
     372 5.3089482e-05   -796.31624            0   -796.31623    14101.505 
     373 6.020684e-05   -796.31624            0   -796.31624    14101.583 
     374 5.5936921e-05   -796.31625            0   -796.31624     14101.65 
     375 5.1092698e-05   -796.31625            0   -796.31625    14101.695 
     376 5.5560039e-05   -796.31626            0   -796.31626    14101.723 
     377 6.689152e-05   -796.31627            0   -796.31627    14101.741 
     378 8.1142594e-05   -796.31628            0   -796.31628    14101.757 
     379 9.7014046e-05   -796.31629            0   -796.31629    14101.772 
     380 0.00011428176    -796.3163            0    -796.3163     14101.79 
     381 0.0001329027   -796.31632            0   -796.31631    14101.808 
     382 0.00015285364   -796.31633            0   -796.31633    14101.828 
     383 0.00017411259   -796.31635            0   -796.31634     14101.85 
     384 0.0001966561   -796.31636            0   -796.31636    14101.873 
     385 0.0002204592   -796.31638            0   -796.31638    14101.897 
     386 0.00024549546    -796.3164            0    -796.3164    14101.923 
     387 0.00027173696   -796.31642            0   -796.31642     14101.95 
     388 0.00029915439   -796.31644            0   -796.31644    14101.978 
     389 0.00032771703   -796.31646            0   -796.31646    14102.008 
     390 0.00035739278   -796.31648            0   -796.31648     14102.04 
     391 0.00038814826   -796.31651            0    -796.3165    14102.072 
     392 0.00041994875   -796.31653            0   -796.31653    14102.106 
     393 0.0004527583   -796.31656            0   -796.31655    14102.142 
     394 0.00048653974   -796.31659            0   -796.31658    14102.178 
     395 0.0005212547   -796.31661            0   -796.31661    14102.216 
     396 0.0005568637   -796.31664            0   -796.31663    14102.255 
     397 0.00059332614   -796.31667            0   -796.31666    14102.296 
     398 0.00063060037    -796.3167            0   -796.31669    14102.338 
     399 0.00066864371   -796.31674            0   -796.31672    14102.381 
     400 0.00070741252   -796.31677            0   -796.31676    14102.425 
     401 0.00074686221    -796.3168            0   -796.31679    14102.471 
     402 0.00078694736   -796.31684            0   -796.31682    14102.518 
     403 0.00082762154   -796.31687            0   -796.31686    14102.566 
     404 0.00086883797   -796.31691            0    -796.3169    14102.615 
     405 0.00091054803   -796.31695            0   -796.31693    14102.666 
     406 0.00095270586   -796.31699            0   -796.31697    14102.717 
     407 0.00099525284   -796.31703            0   -796.31701     14102.77 
     408 0.0010381689   -796.31707            0   -796.31705    14102.824 
     409 0.0010813036   -796.31711            0   -796.31709    14102.878 
     410 0.0011249863   -796.31715            0   -796.31713    14102.937 
     411 0.0011680199   -796.31719            0   -796.31718    14102.985 
     412 0.0012194489   -796.31724            0   -796.31722    14103.077 
     413 0.0013174249   -796.31728            0   -796.31726        14103 
     414 0.0018280704   -796.31732            0   -796.31729    14103.458 
     415 4.7571066e-05   -796.31732            0   -796.31732    14103.367 
     416 5.8669302e-05   -796.31732            0   -796.31732    14103.291 
     417 5.6417925e-05   -796.31733            0   -796.31732    14103.222 
     418 4.0718346e-05   -796.31733            0   -796.31733    14103.179 
     419 3.3034752e-05   -796.31734            0   -796.31734    14103.167 
     420 3.730714e-05   -796.31734            0   -796.31734    14103.171 
     421 4.4864581e-05   -796.31735            0   -796.31735    14103.181 
     422 5.3303024e-05   -796.31736            0   -796.31736    14103.192 
     423 6.2432455e-05   -796.31737            0   -796.31737    14103.205 
     424 7.2247554e-05   -796.31738            0   -796.31738    14103.218 
     425 8.2738407e-05   -796.31739            0   -796.31739    14103.233 
     426 9.3893443e-05   -796.31741            0    -796.3174    14103.248 
     427 0.00010570042   -796.31742            0   -796.31742    14103.265 
     428 0.00011814629   -796.31743            0   -796.31743    14103.283 
     429 0.00013121727   -796.31745            0   -796.31744    14103.301 
     430 0.00014489886   -796.31746            0   -796.31746    14103.321 
     431 0.0001591758   -796.31748            0   -796.31748    14103.341 
     432 0.00017403213   -796.31749            0   -796.31749    14103.363 
     433 0.00018945123   -796.31751            0   -796.31751    14103.385 
     434 0.00020541575   -796.31753            0   -796.31753    14103.409 
     435 0.00022190774   -796.31755            0   -796.31755    14103.433 
     436 0.00023890858   -796.31757            0   -796.31757    14103.459 
     437 0.00025639901   -796.31759            0   -796.31759    14103.485 
     438 0.00027435921   -796.31761            0   -796.31761    14103.512 
     439 0.00029276876   -796.31764            0   -796.31763     14103.54 
     440 0.00031160664   -796.31766            0   -796.31765    14103.569 
     441 0.00033085138   -796.31768            0   -796.31768    14103.599 
     442 0.00035048083   -796.31771            0    -796.3177     14103.63 
     443 0.00037047261   -796.31773            0   -796.31773    14103.662 
     444 0.00039080327   -796.31776            0   -796.31775    14103.695 
     445 0.00041145035   -796.31779            0   -796.31778    14103.728 
     446 0.00043238715   -796.31781            0   -796.31781    14103.763 
     447 0.00045359705   -796.31784            0   -796.31783    14103.798 
     448 0.00047503261   -796.31787            0   -796.31786    14103.834 
     449 0.00049673954    -796.3179            0   -796.31789    14103.871 
     450 0.00051847198   -796.31793            0   -796.31792    14103.907 
     451 0.00054106611   -796.31796            0   -796.31796    14103.953 
     452 0.00056292583     -796.318            0   -796.31799    14103.966 
     453 0.00060996199   -796.31803            0   -796.31802    14104.102 
     454 0.00073017333   -796.31805            0   -796.31804    14103.848 
     455 9.3022501e-05   -796.31806            0   -796.31806     14103.97 
     456 5.0599439e-05   -796.31806            0   -796.31806    14104.052 
     457 2.7858964e-05   -796.31807            0   -796.31807     14104.07 
     458 3.2206974e-05   -796.31808            0   -796.31808    14104.079 
     459 3.7546168e-05   -796.31809            0   -796.31809    14104.088 
     460 4.3272456e-05    -796.3181            0    -796.3181    14104.099 
     461 4.9380865e-05   -796.31811            0    -796.3181     14104.11 
     462 5.5864495e-05   -796.31812            0   -796.31811    14104.122 
     463 6.2716284e-05   -796.31813            0   -796.31812    14104.135 
     464 6.9928644e-05   -796.31814            0   -796.31814    14104.148 
     465 7.7493604e-05   -796.31815            0   -796.31815    14104.162 
     466 8.5402749e-05   -796.31816            0   -796.31816    14104.177 
     467 9.3647273e-05   -796.31817            0   -796.31817    14104.193 
     468 0.00010221795   -796.31819            0   -796.31819     14104.21 
     469 0.00011110519    -796.3182            0    -796.3182    14104.227 
     470 0.00012029898   -796.31822            0   -796.31822    14104.245 
     471 0.00012978897   -796.31823            0   -796.31823    14104.263 
     472 0.00013956442   -796.31825            0   -796.31825    14104.283 
     473 0.00014961428   -796.31827            0   -796.31827    14104.303 
     474 0.00015992705   -796.31829            0   -796.31828    14104.323 
     475 0.00017049108    -796.3183            0    -796.3183    14104.345 
     476 0.00018129411   -796.31832            0   -796.31832    14104.367 
     477 0.00019232416   -796.31834            0   -796.31834     14104.39 
     478 0.00020356767   -796.31836            0   -796.31836    14104.413 
     479 0.0002150138   -796.31838            0   -796.31838    14104.438 
     480 0.0002266439    -796.3184            0    -796.3184    14104.462 
     481 0.00023845837   -796.31843            0   -796.31842    14104.488 
     482 0.00025040354   -796.31845            0   -796.31845    14104.514 
     483 0.00026256763   -796.31847            0   -796.31847    14104.542 
     484 0.00027449604    -796.3185            0   -796.31849    14104.565 
     485 0.00028622643   -796.31852            0   -796.31852    14104.607 
     486 0.00028267422   -796.31855            0   -796.31854    14104.587 
     487 0.00018168171   -796.31856            0   -796.31856     14104.71 
     488 8.6807651e-06   -796.31856            0   -796.31856    14104.679 
     489 1.0149903e-05   -796.31857            0   -796.31857    14104.659 
     490 1.1290153e-05   -796.31857            0   -796.31857    14104.653 
     491 1.347457e-05   -796.31858            0   -796.31858    14104.656 
     492 1.6214857e-05   -796.31858            0   -796.31858    14104.662 
     493 1.9212034e-05   -796.31859            0   -796.31859    14104.669 
     494 2.2450644e-05    -796.3186            0    -796.3186    14104.677 
     495 2.5928899e-05    -796.3186            0    -796.3186    14104.685 
     496 2.9643007e-05   -796.31861            0   -796.31861    14104.693 
     497 3.3588904e-05   -796.31862            0   -796.31862    14104.703 
     498 3.7762256e-05   -796.31863            0   -796.31863    14104.713 
     499 4.215846e-05   -796.31864            0   -796.31864    14104.723 
     500 4.6772648e-05   -796.31865            0   -796.31865    14104.734 
     501 5.1599693e-05   -796.31866            0   -796.31866    14104.746 
     502 5.6634214e-05   -796.31867            0   -796.31867    14104.758 
     503 6.1870581e-05   -796.31868            0   -796.31868    14104.771 
     504 6.7302919e-05   -796.31869            0   -796.31869    14104.784 
     505 7.2925113e-05   -796.31871            0    -796.3187    14104.798 
     506 7.8730818e-05   -796.31872            0   -796.31872    14104.813 
     507 8.471346e-05   -796.31873            0   -796.31873    14104.828 
     508 9.0866246e-05   -796.31875            0   -796.31874    14104.843 
     509 9.7182164e-05   -796.31876            0   -796.31876    14104.859 
     510  0.000103654   -796.31878            0   -796.31877    14104.876 
     511 0.00011027433   -796.31879            0   -796.31879    14104.894 
     512 0.00011703554   -796.31881            0   -796.31881    14104.911 
     513 0.00012392983   -796.31883            0   -796.31882     14104.93 
     514 0.00013094921   -796.31884            0   -796.31884    14104.949 
     515 0.00013808552   -796.31886            0   -796.31886    14104.968 
     516 0.00014533044   -796.31888            0   -796.31888    14104.988 
     517 0.0001526754    -796.3189            0    -796.3189    14105.009 
     518 0.00016011203   -796.31892            0   -796.31892     14105.03 
     519 0.00016762985   -796.31894            0   -796.31894    14105.051 
     520 0.0001752194   -796.31896            0   -796.31896    14105.073 
     521 0.00018279188   -796.31898            0   -796.31898    14105.095 
     522 0.00018959184     -796.319            0     -796.319     14105.12 
     523 0.00018423385   -796.31902            0   -796.31902    14105.137 
     524 8.3795068e-05   -796.31904            0   -796.31904    14105.164 
     525 7.9680261e-07   -796.31904            0   -796.31904    14105.162 
     526 1.4429555e-06   -796.31904            0   -796.31904    14105.161 
     527 2.5523804e-06   -796.31904            0   -796.31904    14105.161 
     528 4.0071937e-06   -796.31904            0   -796.31904    14105.162 
     529 5.4052672e-06   -796.31905            0   -796.31905    14105.165 
     530 6.7928086e-06   -796.31905            0   -796.31905    14105.169 
     531 8.2996209e-06   -796.31906            0   -796.31906    14105.174 
     532 9.9503891e-06   -796.31906            0   -796.31906    14105.179 
     533 1.1745251e-05   -796.31907            0   -796.31907    14105.184 
     534 1.3682367e-05   -796.31907            0   -796.31907     14105.19 
     535 1.5759624e-05   -796.31908            0   -796.31908    14105.197 
     536 1.7974756e-05   -796.31908            0   -796.31908    14105.203 
     537 2.0325331e-05   -796.31909            0   -796.31909    14105.211 
     538 2.2808758e-05    -796.3191            0    -796.3191    14105.218 
     539 2.542229e-05   -796.31911            0   -796.31911    14105.227 
     540 2.8163022e-05   -796.31911            0   -796.31911    14105.235 
     541 3.1027899e-05   -796.31912            0   -796.31912    14105.244 
     542 3.4013715e-05   -796.31913            0   -796.31913    14105.254 
     543 3.7117117e-05   -796.31914            0   -796.31914    14105.264 
     544 4.0334608e-05   -796.31915            0   -796.31915    14105.274 
     545 4.3662554e-05   -796.31916            0   -796.31916    14105.285 
     546 4.7097178e-05   -796.31917            0   -796.31917    14105.297 
     547 5.0634576e-05   -796.31919            0   -796.31918    14105.308 
     548 5.4270708e-05    -796.3192            0    -796.3192    14105.321 
     549 5.8001411e-05   -796.31921            0   -796.31921    14105.333 
     550 6.1822396e-05   -796.31922            0   -796.31922    14105.346 
     551 6.5729261e-05   -796.31924            0   -796.31923     14105.36 
     552 6.9717476e-05   -796.31925            0   -796.31925    14105.374 
     553 7.378243e-05   -796.31926            0   -796.31926    14105.388 
     554 7.7919323e-05   -796.31928            0   -796.31928    14105.403 
     555 8.2123479e-05   -796.31929            0   -796.31929    14105.418 
     556 8.6389462e-05   -796.31931            0   -796.31931    14105.433 
     557 9.0713682e-05   -796.31932            0   -796.31932    14105.449 
     558 9.5085951e-05   -796.31934            0   -796.31934    14105.466 
     559 9.9513113e-05   -796.31936            0   -796.31936    14105.483 
     560 0.00010389042   -796.31937            0   -796.31937    14105.499 
     561 0.00010783884   -796.31939            0   -796.31939    14105.521 
     562 0.00010301373   -796.31941            0   -796.31941    14105.521 
     563 4.2335849e-05   -796.31942            0   -796.31942    14105.566 
     564 3.7693604e-07   -796.31942            0   -796.31942    14105.562 
     565 6.6073905e-07   -796.31942            0   -796.31942    14105.558 
     566 1.0957048e-06   -796.31942            0   -796.31942    14105.554 
     567 1.7092274e-06   -796.31942            0   -796.31942    14105.552 
     568 2.4194654e-06   -796.31943            0   -796.31943    14105.551 
     569 3.1650633e-06   -796.31943            0   -796.31943    14105.553 
     570 3.9770128e-06   -796.31943            0   -796.31943    14105.556 
     571 4.8741179e-06   -796.31944            0   -796.31944    14105.559 
     572 5.858778e-06   -796.31944            0   -796.31944    14105.563 
     573 6.9305752e-06   -796.31944            0   -796.31944    14105.567 
     574 8.088506e-06   -796.31945            0   -796.31945    14105.572 
     575 9.3313153e-06   -796.31945            0   -796.31945    14105.577 
     576 1.0657642e-05   -796.31946            0   -796.31946    14105.582 
     577 1.2066028e-05   -796.31947            0   -796.31947    14105.588 
     578 1.3554917e-05   -796.31947            0   -796.31947    14105.594 
     579 1.5122655e-05   -796.31948            0   -796.31948      14105.6 
     580 1.6767497e-05   -796.31949            0   -796.31949    14105.607 
     581 1.8487603e-05   -796.31949            0   -796.31949    14105.614 
     582 2.0281042e-05    -796.3195            0    -796.3195    14105.622 
     583 2.2145792e-05   -796.31951            0   -796.31951     14105.63 
     584 2.4079747e-05   -796.31952            0   -796.31952    14105.638 
     585 2.6080713e-05   -796.31953            0   -796.31953    14105.646 
     586 2.8146412e-05   -796.31953            0   -796.31953    14105.655 
     587 3.0274485e-05   -796.31954            0   -796.31954    14105.664 
     588 3.2462494e-05   -796.31955            0   -796.31955    14105.674 
     589 3.4707923e-05   -796.31956            0   -796.31956    14105.684 
     590 3.7008181e-05   -796.31958            0   -796.31957    14105.694 
     591 3.9360607e-05   -796.31959            0   -796.31959    14105.705 
     592 4.1762457e-05    -796.3196            0    -796.3196    14105.716 
     593 4.4210956e-05   -796.31961            0   -796.31961    14105.727 
     594 4.6703165e-05   -796.31962            0   -796.31962    14105.738 
     595 4.9236354e-05   -796.31963            0   -796.31963     14105.75 
     596 5.1806933e-05   -796.31965            0   -796.31965    14105.763 
     597 5.4413669e-05   -796.31966            0   -796.31966    14105.775 
     598 5.7047114e-05   -796.31967            0   -796.31967    14105.788 
     599 5.9721014e-05   -796.31969            0   -796.31969    14105.802 
     600 6.2312961e-05    -796.3197            0    -796.3197    14105.813 
     601 6.4476552e-05   -796.31972            0   -796.31972    14105.835 
     602 5.7317859e-05   -796.31973            0   -796.31973    14105.819 
     603 1.3378093e-05   -796.31974            0   -796.31974    14105.859 
     604 1.0967004e-06   -796.31974            0   -796.31974    14105.853 
     605 1.4659754e-06   -796.31974            0   -796.31974     14105.85 
     606 1.8836397e-06   -796.31974            0   -796.31974     14105.85 
     607 2.3694759e-06   -796.31974            0   -796.31974    14105.852 
     608 2.9145071e-06   -796.31975            0   -796.31975    14105.855 
     609 3.5138896e-06   -796.31975            0   -796.31975    14105.858 
     610 4.1671158e-06   -796.31975            0   -796.31975    14105.861 
     611 4.8736771e-06   -796.31976            0   -796.31976    14105.865 
     612 5.6328086e-06   -796.31976            0   -796.31976    14105.869 
     613 6.4436765e-06   -796.31977            0   -796.31977    14105.873 
     614 7.305387e-06   -796.31977            0   -796.31977    14105.878 
     615 8.2169852e-06   -796.31978            0   -796.31978    14105.882 
     616 9.1774569e-06   -796.31978            0   -796.31978    14105.887 
     617 1.0185729e-05   -796.31979            0   -796.31979    14105.893 
     618 1.124067e-05   -796.31979            0   -796.31979    14105.898 
     619 1.2341093e-05    -796.3198            0    -796.3198    14105.904 
     620 1.3485754e-05   -796.31981            0   -796.31981    14105.911 
     621 1.4673356e-05   -796.31981            0   -796.31981    14105.917 
     622 1.5902547e-05   -796.31982            0   -796.31982    14105.924 
     623 1.7171925e-05   -796.31983            0   -796.31983    14105.931 
     624 1.8480036e-05   -796.31984            0   -796.31984    14105.938 
     625 1.9825375e-05   -796.31985            0   -796.31985    14105.946 
     626 2.1206394e-05   -796.31985            0   -796.31985    14105.954 
     627 2.2621491e-05   -796.31986            0   -796.31986    14105.962 
     628 2.4069032e-05   -796.31987            0   -796.31987     14105.97 
     629 2.5547308e-05   -796.31988            0   -796.31988    14105.979 
     630 2.7054647e-05   -796.31989            0   -796.31989    14105.988 
     631 2.8589128e-05    -796.3199            0    -796.3199    14105.997 
     632 3.0149372e-05   -796.31991            0   -796.31991    14106.006 
     633 3.1732233e-05   -796.31992            0   -796.31992    14106.016 
     634 3.3339781e-05   -796.31994            0   -796.31993    14106.026 
     635 3.4955425e-05   -796.31995            0   -796.31995    14106.036 
     636 3.6609468e-05   -796.31996            0   -796.31996    14106.048 
     637 3.7944001e-05   -796.31997            0   -796.31997    14106.052 
     638 3.708459e-05   -796.31998            0   -796.31998    14106.085 
     639 1.5528014e-05   -796.31999            0   -796.31999     14106.05 
     640 2.2328035e-07   -796.31999            0   -796.31999    14106.054 
     641 3.6984071e-07   -796.31999            0   -796.31999     14106.06 
     642 5.4132291e-07   -796.31999            0   -796.31999    14106.066 
     643 7.274575e-07   -796.31999            0   -796.31999    14106.072 
     644 9.4004019e-07   -796.31999            0   -796.31999    14106.076 
     645 1.2011644e-06      -796.32            0      -796.32    14106.078 
     646 1.5081813e-06      -796.32            0      -796.32    14106.081 
     647 1.8532363e-06      -796.32            0      -796.32    14106.083 
     648 2.233504e-06      -796.32            0      -796.32    14106.085 
     649 2.6480922e-06   -796.32001            0   -796.32001    14106.088 
     650 3.0964782e-06   -796.32001            0   -796.32001    14106.091 
     651 3.5781726e-06   -796.32001            0   -796.32001    14106.094 
     652 4.0926458e-06   -796.32002            0   -796.32002    14106.097 
     653 4.639329e-06   -796.32002            0   -796.32002    14106.101 
     654 5.2176152e-06   -796.32003            0   -796.32003    14106.105 
     655 5.8268593e-06   -796.32003            0   -796.32003    14106.109 
     656 6.466379e-06   -796.32003            0   -796.32003    14106.113 
     657 7.1354556e-06   -796.32004            0   -796.32004    14106.118 
     658 7.833334e-06   -796.32005            0   -796.32005    14106.123 
     659 8.5592242e-06   -796.32005            0   -796.32005    14106.128 
     660 9.3123017e-06   -796.32006            0   -796.32006    14106.133 
     661 1.0091708e-05   -796.32006            0   -796.32006    14106.138 
     662 1.0896553e-05   -796.32007            0   -796.32007    14106.144 
     663 1.1725912e-05   -796.32008            0   -796.32008     14106.15 
     664 1.2578831e-05   -796.32008            0   -796.32008    14106.156 
     665 1.3454327e-05   -796.32009            0   -796.32009    14106.162 
     666 1.4351383e-05    -796.3201            0    -796.3201    14106.169 
     667 1.5268962e-05   -796.32011            0   -796.32011    14106.176 
     668 1.6205985e-05   -796.32012            0   -796.32012    14106.183 
     669 1.716138e-05   -796.32012            0   -796.32012     14106.19 
     670 1.8133958e-05   -796.32013            0   -796.32013    14106.197 
     671 1.9122773e-05   -796.32014            0   -796.32014    14106.205 
     672 2.0126044e-05   -796.32015            0   -796.32015    14106.213 
     673 2.1144574e-05   -796.32016            0   -796.32016    14106.221 
     674 2.2170501e-05   -796.32017            0   -796.32017    14106.229 
     675   2.3228e-05   -796.32018            0   -796.32018    14106.239 
     676 2.4246212e-05   -796.32019            0   -796.32019    14106.243 
     677 2.586951e-05    -796.3202            0    -796.3202    14106.268 
     678 2.8335487e-05   -796.32021            0   -796.32021    14106.222 
     679 3.8148153e-06   -796.32021            0   -796.32021    14106.249 
     680 1.9697326e-06   -796.32021            0   -796.32021    14106.265 
     681 1.3400872e-06   -796.32022            0   -796.32022    14106.267 
     682 1.5965924e-06   -796.32022            0   -796.32022    14106.269 
     683 1.8756179e-06   -796.32022            0   -796.32022    14106.271 
     684 2.1759452e-06   -796.32022            0   -796.32022    14106.274 
     685 2.4973645e-06   -796.32023            0   -796.32023    14106.276 
     686 2.8394787e-06   -796.32023            0   -796.32023    14106.279 
     687 3.2019298e-06   -796.32023            0   -796.32023    14106.282 
     688 3.5842998e-06   -796.32024            0   -796.32024    14106.286 
     689 3.9861726e-06   -796.32024            0   -796.32024    14106.289 
     690 4.4070862e-06   -796.32025            0   -796.32025    14106.293 
     691 4.8465783e-06   -796.32025            0   -796.32025    14106.296 
     692 5.3041374e-06   -796.32026            0   -796.32026      14106.3 
     693 5.7792651e-06   -796.32026            0   -796.32026    14106.305 
     694 6.2713902e-06   -796.32027            0   -796.32027    14106.309 
     695 6.7800022e-06   -796.32027            0   -796.32027    14106.314 
     696 7.3044276e-06   -796.32028            0   -796.32028    14106.318 
     697 7.844242e-06   -796.32028            0   -796.32028    14106.323 
     698 8.3984559e-06   -796.32029            0   -796.32029    14106.328 
     699 8.9672491e-06    -796.3203            0    -796.3203    14106.334 
     700 9.5480292e-06    -796.3203            0    -796.3203    14106.339 
     701 1.0145042e-05   -796.32031            0   -796.32031    14106.345 
     702 1.0744935e-05   -796.32032            0   -796.32032     14106.35 
     703 1.1386863e-05   -796.32032            0   -796.32032    14106.358 
     704 1.1993239e-05   -796.32033            0   -796.32033    14106.358 
     705 1.3147992e-05   -796.32034            0   -796.32034    14106.383 
     706 1.2742067e-05   -796.32034            0   -796.32034    14106.346 
     707 1.6856488e-06   -796.32035            0   -796.32035    14106.364 
     708 9.8132229e-07   -796.32035            0   -796.32035    14106.373 
     709 8.1437776e-07   -796.32035            0   -796.32035    14106.376 
     710 9.7753765e-07   -796.32035            0   -796.32035    14106.378 
     711 1.1643236e-06   -796.32035            0   -796.32035    14106.379 
     712 1.3667336e-06   -796.32036            0   -796.32036    14106.381 
     713 1.5845997e-06   -796.32036            0   -796.32036    14106.384 
     714 1.8176713e-06   -796.32036            0   -796.32036    14106.386 
     715 2.0656967e-06   -796.32036            0   -796.32036    14106.388 
     716 2.3283991e-06   -796.32037            0   -796.32037    14106.391 
     717 2.6054886e-06   -796.32037            0   -796.32037    14106.394 
     718 2.8966545e-06   -796.32037            0   -796.32037    14106.396 
     719 3.2015727e-06   -796.32038            0   -796.32038    14106.399 
     720 3.519899e-06   -796.32038            0   -796.32038    14106.403 
     721 3.8512771e-06   -796.32039            0   -796.32039    14106.406 
     722 4.1953291e-06   -796.32039            0   -796.32039     14106.41 
     723 4.5516703e-06    -796.3204            0    -796.3204    14106.413 
     724 4.9198867e-06    -796.3204            0    -796.3204    14106.417 
     725 5.2995751e-06   -796.32041            0   -796.32041    14106.421 
     726 5.6902684e-06   -796.32041            0   -796.32041    14106.425 
     727 6.0915902e-06   -796.32042            0   -796.32042    14106.429 
     728 6.5029153e-06   -796.32042            0   -796.32042    14106.434 
     729 6.9241708e-06   -796.32043            0   -796.32043    14106.438 
     730 7.3538319e-06   -796.32044            0   -796.32043    14106.443 
     731 7.7942615e-06   -796.32044            0   -796.32044    14106.448 
     732 8.2367957e-06   -796.32045            0   -796.32045    14106.453 
     733 8.7074072e-06   -796.32045            0   -796.32045    14106.459 
     734 9.1397402e-06   -796.32046            0   -796.32046    14106.459 
     735 9.901938e-06   -796.32047            0   -796.32047    14106.482 
     736 7.8469997e-06   -796.32047            0   -796.32047    14106.451 
     737 4.1921773e-07   -796.32047            0   -796.32047    14106.459 
     738 4.2934629e-07   -796.32047            0   -796.32047    14106.467 
     739 3.8160638e-07   -796.32047            0   -796.32047    14106.472 
     740 4.1403374e-07   -796.32048            0   -796.32048    14106.474 
     741  5.09091e-07   -796.32048            0   -796.32048    14106.476 
     742 6.230185e-07   -796.32048            0   -796.32048    14106.477 
     743 7.4869629e-07   -796.32048            0   -796.32048    14106.478 
     744 8.8551831e-07   -796.32048            0   -796.32048     14106.48 
     745 1.0333198e-06   -796.32049            0   -796.32049    14106.482 
     746 1.1919423e-06   -796.32049            0   -796.32049    14106.483 
     747 1.3612114e-06   -796.32049            0   -796.32049    14106.485 
     748 1.5409412e-06   -796.32049            0   -796.32049    14106.488 
     749 1.7309329e-06    -796.3205            0    -796.3205     14106.49 
     750 1.930976e-06    -796.3205            0    -796.3205    14106.492 
     751 2.1408476e-06    -796.3205            0    -796.3205    14106.495 
     752 2.3603136e-06   -796.32051            0   -796.32051    14106.497 
     753 2.5891279e-06   -796.32051            0   -796.32051      14106.5 
     754 2.8270338e-06   -796.32051            0   -796.32051    14106.503 
     755 3.0737627e-06   -796.32052            0   -796.32052    14106.506 
     756 3.3290371e-06   -796.32052            0   -796.32052    14106.509 
     757 3.5925658e-06   -796.32053            0   -796.32053    14106.513 
     758 3.8640541e-06   -796.32053            0   -796.32053    14106.516 
     759 4.143184e-06   -796.32054            0   -796.32054     14106.52 
     760 4.4296582e-06   -796.32054            0   -796.32054    14106.523 
     761 4.7231018e-06   -796.32055            0   -796.32055    14106.527 
     762 5.023309e-06   -796.32055            0   -796.32055    14106.531 
     763 5.3295747e-06   -796.32056            0   -796.32056    14106.535 
     764 5.6425854e-06   -796.32056            0   -796.32056    14106.539 
     765 5.9588573e-06   -796.32057            0   -796.32057    14106.543 
     766 6.2884483e-06   -796.32057            0   -796.32057    14106.549 
     767 6.6014771e-06   -796.32058            0   -796.32058     14106.55 
     768 7.0664077e-06   -796.32059            0   -796.32059    14106.565 
     769 7.0963816e-06   -796.32059            0   -796.32059    14106.541 
     770 9.3633323e-07   -796.32059            0   -796.32059    14106.555 
     771 5.3167748e-07   -796.32059            0   -796.32059    14106.562 
     772 4.2534951e-07   -796.32059            0   -796.32059    14106.563 
     773 5.1163817e-07    -796.3206            0    -796.3206    14106.564 
     774 6.0652058e-07    -796.3206            0    -796.3206    14106.566 
     775 7.0906726e-07    -796.3206            0    -796.3206    14106.567 
     776 8.1924402e-07    -796.3206            0    -796.3206    14106.569 
     777 9.3690302e-07    -796.3206            0    -796.3206     14106.57 
     778 1.0619301e-06   -796.32061            0   -796.32061    14106.572 
     779 1.1941782e-06   -796.32061            0   -796.32061    14106.574 
     780 1.3335099e-06   -796.32061            0   -796.32061    14106.576 
     781 1.479763e-06   -796.32062            0   -796.32062    14106.578 
     782 1.6327845e-06   -796.32062            0   -796.32062     14106.58 
     783 1.7923926e-06   -796.32062            0   -796.32062    14106.583 
     784 1.9584261e-06   -796.32062            0   -796.32062    14106.585 
     785 2.1306729e-06   -796.32063            0   -796.32063    14106.588 
     786 2.3089857e-06   -796.32063            0   -796.32063     14106.59 
     787 2.4930791e-06   -796.32064            0   -796.32064    14106.593 
     788 2.6829178e-06   -796.32064            0   -796.32064    14106.596 
     789 2.8779158e-06   -796.32064            0   -796.32064    14106.599 
     790 3.0787131e-06   -796.32065            0   -796.32065    14106.602 
     791 3.2829653e-06   -796.32065            0   -796.32065    14106.605 
     792 3.4960411e-06   -796.32066            0   -796.32066    14106.609 
     793 3.7028914e-06   -796.32066            0   -796.32066    14106.611 
     794 3.9539426e-06   -796.32067            0   -796.32067    14106.619 
     795 4.1432577e-06   -796.32067            0   -796.32067     14106.61 
     796 3.3146351e-06   -796.32067            0   -796.32067    14106.633 
     797 3.247242e-07   -796.32067            0   -796.32067    14106.626 
     798 2.4722632e-07   -796.32068            0   -796.32068    14106.623 
     799 2.3698237e-07   -796.32068            0   -796.32068    14106.623 
     800 2.8991304e-07   -796.32068            0   -796.32068    14106.624 
     801 3.5240869e-07   -796.32068            0   -796.32068    14106.625 
     802 4.2072254e-07   -796.32068            0   -796.32068    14106.626 
     803 4.9486295e-07   -796.32068            0   -796.32068    14106.627 
     804 5.7474022e-07   -796.32068            0   -796.32068    14106.628 
     805 6.6027113e-07   -796.32069            0   -796.32069     14106.63 
     806 7.5136164e-07   -796.32069            0   -796.32069    14106.631 
     807 8.4791349e-07   -796.32069            0   -796.32069    14106.633 
     808 9.4982051e-07   -796.32069            0   -796.32069    14106.634 
     809 1.0569717e-06    -796.3207            0    -796.3207    14106.636 
     810 1.1692484e-06    -796.3207            0    -796.3207    14106.638 
     811 1.286528e-06    -796.3207            0    -796.3207     14106.64 
     812 1.4086793e-06    -796.3207            0    -796.3207    14106.642 
     813 1.5355692e-06   -796.32071            0   -796.32071    14106.644 
     814 1.6670534e-06   -796.32071            0   -796.32071    14106.647 
     815 1.8029917e-06   -796.32071            0   -796.32071    14106.649 
     816 1.9432205e-06   -796.32072            0   -796.32072    14106.651 
     817 2.0876091e-06   -796.32072            0   -796.32072    14106.654 
     818 2.2359371e-06   -796.32072            0   -796.32072    14106.657 
     819 2.3881823e-06   -796.32073            0   -796.32073    14106.659 
     820 2.5438003e-06   -796.32073            0   -796.32073    14106.662 
     821 2.7036481e-06   -796.32074            0   -796.32074    14106.665 
     822 2.8645895e-06   -796.32074            0   -796.32074    14106.668 
     823 3.0360505e-06   -796.32075            0   -796.32074    14106.672 
     824 3.1934814e-06   -796.32075            0   -796.32075    14106.672 
     825 3.4670793e-06   -796.32075            0   -796.32075    14106.686 
     826 2.6427623e-06   -796.32076            0   -796.32076    14106.668 
     827 1.3554144e-07   -796.32076            0   -796.32076    14106.672 
     828 1.4374229e-07   -796.32076            0   -796.32076    14106.677 
     829 1.3254277e-07   -796.32076            0   -796.32076     14106.68 
     830 1.4589374e-07   -796.32076            0   -796.32076    14106.681 
     831 1.808238e-07   -796.32076            0   -796.32076    14106.682 
     832 2.2282341e-07   -796.32076            0   -796.32076    14106.683 
     833 2.6931058e-07   -796.32076            0   -796.32076    14106.683 
     834 3.2005919e-07   -796.32076            0   -796.32076    14106.684 
     835 3.7500998e-07   -796.32077            0   -796.32077    14106.685 
     836 4.3410539e-07   -796.32077            0   -796.32077    14106.687 
     837 4.9728182e-07   -796.32077            0   -796.32077    14106.688 
     838 5.6447151e-07   -796.32077            0   -796.32077    14106.689 
     839 6.3560179e-07   -796.32077            0   -796.32077    14106.691 
     840 7.1059571e-07   -796.32077            0   -796.32077    14106.692 
     841 7.8937165e-07   -796.32078            0   -796.32078    14106.694 
     842 8.718439e-07   -796.32078            0   -796.32078    14106.695 
     843 9.5792215e-07   -796.32078            0   -796.32078    14106.697 
     844 1.0475124e-06   -796.32078            0   -796.32078    14106.699 
     845 1.140516e-06   -796.32079            0   -796.32079    14106.701 
     846 1.2368314e-06   -796.32079            0   -796.32079    14106.703 
     847 1.336351e-06   -796.32079            0   -796.32079    14106.705 
     848 1.4389682e-06    -796.3208            0    -796.3208    14106.707 
     849 1.5445625e-06    -796.3208            0    -796.3208    14106.709 
     850 1.6530344e-06    -796.3208            0    -796.3208    14106.711 
     851 1.7642198e-06   -796.32081            0   -796.32081    14106.714 
     852 1.8781135e-06   -796.32081            0   -796.32081    14106.716 
     853 1.9942541e-06   -796.32081            0   -796.32081    14106.719 
     854 2.1135279e-06   -796.32082            0   -796.32082    14106.721 
     855 2.2326932e-06   -796.32082            0   -796.32082    14106.724 
     856 2.3633501e-06   -796.32082            0   -796.32082    14106.728 
     857 2.4823487e-06   -796.32083            0   -796.32083    14106.726 
     858 2.6942433e-06   -796.32083            0   -796.32083    14106.743 
     859 6.2767699e-07   -796.32083            0   -796.32083    14106.733 
     860 1.6691205e-07   -796.32083            0   -796.32083    14106.733 
     861 2.0107567e-07   -796.32084            0   -796.32084    14106.734 
     862 2.3831581e-07   -796.32084            0   -796.32084    14106.735 
     863 2.7866359e-07   -796.32084            0   -796.32084    14106.736 
     864 3.2198811e-07   -796.32084            0   -796.32084    14106.737 
     865 3.6827805e-07   -796.32084            0   -796.32084    14106.738 
     866 4.1746319e-07   -796.32084            0   -796.32084    14106.739 
     867 4.6950685e-07   -796.32084            0   -796.32084     14106.74 
     868 5.2433854e-07   -796.32085            0   -796.32085    14106.741 
     869 5.8191505e-07   -796.32085            0   -796.32085    14106.743 
     870 6.4215489e-07   -796.32085            0   -796.32085    14106.744 
     871 7.050197e-07   -796.32085            0   -796.32085    14106.746 
     872 7.7040036e-07   -796.32085            0   -796.32085    14106.747 
     873 8.3829492e-07   -796.32086            0   -796.32086    14106.749 
     874 9.0850285e-07   -796.32086            0   -796.32086     14106.75 
     875 9.8119887e-07   -796.32086            0   -796.32086    14106.752 
     876 1.0557658e-06   -796.32086            0   -796.32086    14106.754 
     877 1.133353e-06   -796.32087            0   -796.32087    14106.756 
     878 1.2108877e-06   -796.32087            0   -796.32087    14106.758 
     879 1.2963676e-06   -796.32087            0   -796.32087    14106.761 
     880 1.3709632e-06   -796.32088            0   -796.32088     14106.76 
     881 1.4860697e-06   -796.32088            0   -796.32088     14106.77 
     882 9.619588e-07   -796.32088            0   -796.32088    14106.759 
     883 1.4896372e-07   -796.32088            0   -796.32088    14106.764 
     884 1.0107694e-07   -796.32088            0   -796.32088    14106.766 
     885 1.1458517e-07   -796.32088            0   -796.32088    14106.766 
     886 1.3962303e-07   -796.32088            0   -796.32088    14106.767 
     887 1.672297e-07   -796.32089            0   -796.32089    14106.768 
     888 1.9722623e-07   -796.32089            0   -796.32089    14106.769 
     889 2.2959195e-07   -796.32089            0   -796.32089    14106.769 
     890 2.6428945e-07   -796.32089            0   -796.32089     14106.77 
     891 3.0128395e-07   -796.32089            0   -796.32089    14106.771 
     892 3.4053513e-07   -796.32089            0   -796.32089    14106.772 
     893 3.8200233e-07   -796.32089            0   -796.32089    14106.773 
     894 4.2564043e-07    -796.3209            0    -796.3209    14106.774 
     895 4.7140398e-07    -796.3209            0    -796.3209    14106.776 
     896 5.1924254e-07    -796.3209            0    -796.3209    14106.777 
     897 5.6910697e-07    -796.3209            0    -796.3209    14106.778 
     898 6.2094025e-07    -796.3209            0    -796.3209     14106.78 
     899 6.7469269e-07   -796.32091            0   -796.32091    14106.781 
     900 7.302947e-07   -796.32091            0   -796.32091    14106.783 
     901 7.8771037e-07   -796.32091            0   -796.32091    14106.784 
     902 8.4682421e-07   -796.32091            0   -796.32091    14106.786 
     903 9.0769918e-07   -796.32092            0   -796.32092    14106.788 
     904 9.6994889e-07   -796.32092            0   -796.32092    14106.789 
     905 1.0343746e-06   -796.32092            0   -796.32092    14106.791 
     906 1.0985153e-06   -796.32092            0   -796.32092    14106.793 
     907 1.1704068e-06   -796.32093            0   -796.32093    14106.796 
     908 1.2342802e-06   -796.32093            0   -796.32093    14106.794 
     909 1.3155191e-06   -796.32093            0   -796.32093    14106.806 
     910 3.3033019e-07   -796.32093            0   -796.32093    14106.799 
     911 9.5938259e-08   -796.32093            0   -796.32093      14106.8 
     912 1.1597432e-07   -796.32093            0   -796.32093      14106.8 
     913 1.3785857e-07   -796.32093            0   -796.32093    14106.801 
     914 1.6155763e-07   -796.32094            0   -796.32094    14106.802 
     915 1.8704938e-07   -796.32094            0   -796.32094    14106.802 
     916 2.1430626e-07   -796.32094            0   -796.32094    14106.803 
     917 2.433004e-07   -796.32094            0   -796.32094    14106.804 
     918 2.7400092e-07   -796.32094            0   -796.32094    14106.805 
     919 3.0637595e-07   -796.32094            0   -796.32094    14106.806 
     920 3.4039083e-07   -796.32094            0   -796.32094    14106.807 
     921 3.760102e-07   -796.32095            0   -796.32095    14106.808 
     922 4.1319544e-07   -796.32095            0   -796.32095    14106.809 
     923 4.5190837e-07   -796.32095            0   -796.32095     14106.81 
     924 4.9210552e-07   -796.32095            0   -796.32095    14106.812 
     925 5.337483e-07   -796.32095            0   -796.32095    14106.813 
     926 5.7678372e-07   -796.32096            0   -796.32096    14106.814 
     927 6.2118432e-07   -796.32096            0   -796.32096    14106.816 
     928 6.668596e-07   -796.32096            0   -796.32096    14106.817 
     929 7.1386729e-07   -796.32096            0   -796.32096    14106.819 
     930 7.6187614e-07   -796.32096            0   -796.32096     14106.82 
     931 8.116255e-07   -796.32097            0   -796.32097    14106.822 
     932 8.6079784e-07   -796.32097            0   -796.32097    14106.823 
     933 9.173064e-07   -796.32097            0   -796.32097    14106.826 
     934 9.6444692e-07   -796.32097            0   -796.32097    14106.823 
     935 9.1319704e-07   -796.32098            0   -796.32098    14106.835 
     936 8.2275252e-08   -796.32098            0   -796.32098    14106.832 
     937 6.452845e-08   -796.32098            0   -796.32098    14106.829 
     938 5.3663944e-08   -796.32098            0   -796.32098    14106.829 
     939 6.5091755e-08   -796.32098            0   -796.32098    14106.829 
     940 7.9487201e-08   -796.32098            0   -796.32098     14106.83 
     941 9.5256241e-08   -796.32098            0   -796.32098    14106.831 
     942 1.1240478e-07   -796.32098            0   -796.32098    14106.831 
     943 1.3091119e-07   -796.32098            0   -796.32098    14106.832 
     944 1.5075786e-07   -796.32098            0   -796.32098    14106.832 
     945 1.7192354e-07   -796.32098            0   -796.32098    14106.833 
     946 1.9438684e-07   -796.32099            0   -796.32099    14106.834 
     947 2.1812395e-07   -796.32099            0   -796.32099    14106.835 
     948 2.4311056e-07   -796.32099            0   -796.32099    14106.836 
     949 2.6932001e-07   -796.32099            0   -796.32099    14106.837 
     950 2.9672557e-07   -796.32099            0   -796.32099    14106.837 
     951 3.2529735e-07   -796.32099            0   -796.32099    14106.839 
     952 3.5500714e-07   -796.32099            0   -796.32099     14106.84 
     953 3.8582031e-07     -796.321            0     -796.321    14106.841 
     954 4.1771086e-07     -796.321            0     -796.321    14106.842 
     955 4.5063139e-07     -796.321            0     -796.321    14106.843 
     956 4.8457818e-07     -796.321            0     -796.321    14106.844 
     957 5.1943994e-07     -796.321            0     -796.321    14106.846 
     958 5.5537477e-07   -796.32101            0   -796.32101    14106.847 
     959 5.9181433e-07   -796.32101            0   -796.32101    14106.848 
     960 6.3031503e-07   -796.32101            0   -796.32101     14106.85 
     961 6.6661071e-07   -796.32101            0   -796.32101     14106.85 
     962 7.2033236e-07   -796.32101            0   -796.32101    14106.855 
     963 7.0103989e-07   -796.32102            0   -796.32102    14106.848 
     964 1.145067e-07   -796.32102            0   -796.32102    14106.853 
     965  5.74901e-08   -796.32102            0   -796.32102    14106.854 
     966 5.5608598e-08   -796.32102            0   -796.32102    14106.855 
     967 6.7181002e-08   -796.32102            0   -796.32102    14106.855 
     968 7.9787098e-08   -796.32102            0   -796.32102    14106.856 
     969 9.3442679e-08   -796.32102            0   -796.32102    14106.856 
     970 1.0812399e-07   -796.32102            0   -796.32102    14106.857 
     971 1.2382051e-07   -796.32102            0   -796.32102    14106.857 
     972 1.405133e-07   -796.32102            0   -796.32102    14106.858 
     973 1.5818751e-07   -796.32102            0   -796.32102    14106.859 
     974 1.7682264e-07   -796.32103            0   -796.32103     14106.86 
     975  1.96402e-07   -796.32103            0   -796.32103     14106.86 
     976 2.1690198e-07   -796.32103            0   -796.32103    14106.861 
     977 2.3830606e-07   -796.32103            0   -796.32103    14106.862 
     978 2.6058431e-07   -796.32103            0   -796.32103    14106.863 
     979 2.8372694e-07   -796.32103            0   -796.32103    14106.864 
     980 3.0768414e-07   -796.32103            0   -796.32103    14106.865 
     981 3.3248379e-07   -796.32104            0   -796.32104    14106.866 
     982 3.5798248e-07   -796.32104            0   -796.32104    14106.867 
     983 3.844332e-07   -796.32104            0   -796.32104    14106.868 
     984 4.1110835e-07   -796.32104            0   -796.32104    14106.869 
     985 4.3996251e-07   -796.32104            0   -796.32104    14106.871 
     986 4.6635753e-07   -796.32104            0   -796.32104    14106.871 
     987 5.0959977e-07   -796.32105            0   -796.32105    14106.876 
     988 4.2244706e-07   -796.32105            0   -796.32105    14106.869 
     989 5.412413e-08   -796.32105            0   -796.32105    14106.872 
     990 3.6379411e-08   -796.32105            0   -796.32105    14106.874 
     991 3.4780898e-08   -796.32105            0   -796.32105    14106.874 
     992 4.2618302e-08   -796.32105            0   -796.32105    14106.875 
     993 5.157316e-08   -796.32105            0   -796.32105    14106.875 
     994 6.1352775e-08   -796.32105            0   -796.32105    14106.876 
     995 7.1949516e-08   -796.32105            0   -796.32105    14106.876 
     996 8.3352156e-08   -796.32105            0   -796.32105    14106.877 
     997 9.5549422e-08   -796.32105            0   -796.32105    14106.877 
     998 1.0852877e-07   -796.32105            0   -796.32105    14106.878 
     999 1.2227709e-07   -796.32105            0   -796.32105    14106.878 
    1000 1.3678022e-07   -796.32106            0   -796.32106    14106.879 
    1001 1.5202341e-07   -796.32106            0   -796.32106     14106.88 
    1002 1.6799084e-07   -796.32106            0   -796.32106     14106.88 
    1003 1.8466633e-07   -796.32106            0   -796.32106    14106.881 
    1004 2.0203224e-07   -796.32106            0   -796.32106    14106.882 
    1005 2.2007138e-07   -796.32106            0   -796.32106    14106.883 
    1006 2.3876368e-07   -796.32106            0   -796.32106    14106.884 
    1007 2.5809266e-07   -796.32106            0   -796.32106    14106.885 
    1008 2.7803188e-07   -796.32107            0   -796.32107    14106.886 
    1009 2.9857587e-07   -796.32107            0   -796.32107    14106.887 
    1010 3.1966468e-07   -796.32107            0   -796.32107    14106.888 
    1011 3.4138095e-07   -796.32107            0   -796.32107    14106.889 
    1012 3.6340797e-07   -796.32107            0   -796.32107     14106.89 
    1013 3.8666355e-07   -796.32107            0   -796.32107    14106.891 
    1014 4.0873948e-07   -796.32108            0   -796.32108    14106.891 
    1015 4.4370661e-07   -796.32108            0   -796.32108    14106.895 
    1016 4.3610691e-07   -796.32108            0   -796.32108    14106.889 
    1017 5.2410132e-08   -796.32108            0   -796.32108    14106.892 
[...]
    2250 2.7867654e-05     -796.233            0     -796.233    14078.865 
    2251 2.9550359e-05     -796.233            0     -796.233    14078.884 
    2252 3.1255614e-05   -796.23299            0   -796.23299    14078.904 
    2253 3.2920047e-05   -796.23299            0   -796.23299    14078.924 
    2254 3.3815377e-05   -796.23298            0   -796.23298    14078.945 
    2255 2.665678e-05   -796.23298            0   -796.23298    14078.962 
    2256 2.9587224e-06   -796.23298            0   -796.23298    14078.968 
    2257 1.5450308e-06   -796.23298            0   -796.23298    14078.972 
    2258 1.9244874e-06   -796.23298            0   -796.23298    14078.976 
    2259 2.3181097e-06   -796.23297            0   -796.23297    14078.982 
    2260 2.7469113e-06   -796.23297            0   -796.23297    14078.987 
    2261 3.2102152e-06   -796.23297            0   -796.23297    14078.993 
    2262 3.7074121e-06   -796.23297            0   -796.23297        14079 
    2263 4.2378424e-06   -796.23297            0   -796.23297    14079.007 
    2264 4.8008002e-06   -796.23297            0   -796.23297    14079.014 
    2265 5.3955327e-06   -796.23297            0   -796.23297    14079.022 
    2266 6.0212419e-06   -796.23296            0   -796.23296    14079.031 
    2267 6.6770854e-06   -796.23296            0   -796.23296     14079.04 
    2268 7.3621774e-06   -796.23296            0   -796.23296    14079.049 
    2269 8.0755899e-06   -796.23296            0   -796.23296    14079.059 
    2270 8.8163539e-06   -796.23296            0   -796.23296    14079.069 
    2271 9.5834605e-06   -796.23295            0   -796.23295     14079.08 
    2272 1.0375862e-05   -796.23295            0   -796.23295    14079.091 
    2273 1.1192474e-05   -796.23295            0   -796.23295    14079.103 
    2274 1.2032176e-05   -796.23295            0   -796.23295    14079.115 
    2275 1.2893809e-05   -796.23294            0   -796.23294    14079.128 
    2276 1.3776189e-05   -796.23294            0   -796.23294    14079.141 
    2277 1.4678082e-05   -796.23294            0   -796.23294    14079.154 
    2278 1.5598238e-05   -796.23294            0   -796.23294    14079.168 
    2279 1.6535121e-05   -796.23293            0   -796.23293    14079.182 
    2280 1.7485993e-05   -796.23293            0   -796.23293    14079.197 
    2281 1.843245e-05   -796.23293            0   -796.23293    14079.212 
    2282 1.9193569e-05   -796.23292            0   -796.23292    14079.228 
    2283 1.7747016e-05   -796.23292            0   -796.23292    14079.243 
    2284 5.4839689e-06   -796.23292            0   -796.23292     14079.25 
    2285 1.3585233e-07   -796.23292            0   -796.23292    14079.251 
    2286  2.46272e-07   -796.23292            0   -796.23292    14079.253 
    2287 4.0763725e-07   -796.23292            0   -796.23292    14079.255 
    2288 5.7964664e-07   -796.23292            0   -796.23292    14079.257 
    2289 7.5081977e-07   -796.23292            0   -796.23292     14079.26 
    2290 9.3646097e-07   -796.23292            0   -796.23292    14079.263 
    2291 1.1414173e-06   -796.23292            0   -796.23292    14079.267 
    2292 1.3658425e-06   -796.23292            0   -796.23292    14079.271 
    2293 1.6094432e-06   -796.23292            0   -796.23292    14079.275 
    2294 1.8718886e-06   -796.23291            0   -796.23291     14079.28 
    2295 2.1528197e-06   -796.23291            0   -796.23291    14079.285 
    2296 2.4518502e-06   -796.23291            0   -796.23291     14079.29 
    2297 2.768567e-06   -796.23291            0   -796.23291    14079.296 
    2298 3.1025306e-06   -796.23291            0   -796.23291    14079.302 
    2299 3.4532757e-06   -796.23291            0   -796.23291    14079.308 
    2300 3.8203121e-06   -796.23291            0   -796.23291    14079.315 
    2301 4.2031248e-06   -796.23291            0   -796.23291    14079.322 
    2302 4.6011748e-06   -796.23291            0   -796.23291     14079.33 
    2303   5.0139e-06    -796.2329            0    -796.2329    14079.337 
    2304 5.4407158e-06    -796.2329            0    -796.2329    14079.346 
    2305 5.8810155e-06    -796.2329            0    -796.2329    14079.354 
    2306 6.3341716e-06    -796.2329            0    -796.2329    14079.363 
    2307 6.7995359e-06    -796.2329            0    -796.2329    14079.372 
    2308 7.276441e-06    -796.2329            0    -796.2329    14079.382 
    2309 7.7642003e-06   -796.23289            0   -796.23289    14079.391 
    2310 8.2621102e-06   -796.23289            0   -796.23289    14079.401 
    2311 8.7694476e-06   -796.23289            0   -796.23289    14079.412 
    2312 9.2854789e-06   -796.23289            0   -796.23289    14079.423 
    2313 9.8094356e-06   -796.23289            0   -796.23289    14079.434 
    2314 1.0340555e-05   -796.23288            0   -796.23288    14079.445 
    2315 1.087759e-05   -796.23288            0   -796.23288    14079.457 
    2316 1.1415768e-05   -796.23288            0   -796.23288    14079.469 
    2317 1.1893185e-05   -796.23288            0   -796.23288    14079.481 
    2318 1.1462153e-05   -796.23288            0   -796.23288    14079.493 
    2319 4.2417886e-06   -796.23287            0   -796.23287      14079.5 
    2320 1.5916767e-08   -796.23287            0   -796.23287    14079.501 
    2321 3.1503628e-08   -796.23287            0   -796.23287    14079.501 
    2322 5.8774557e-08   -796.23287            0   -796.23287    14079.501 
    2323 1.0630125e-07   -796.23287            0   -796.23287    14079.502 
    2324 1.7844913e-07   -796.23287            0   -796.23287    14079.504 
    2325 2.6160793e-07   -796.23287            0   -796.23287    14079.505 
    2326 3.4566586e-07   -796.23287            0   -796.23287    14079.507 
    2327 4.3591949e-07   -796.23287            0   -796.23287    14079.509 
    2328 5.3570018e-07   -796.23287            0   -796.23287    14079.512 
    2329 6.4536061e-07   -796.23287            0   -796.23287    14079.514 
    2330 7.6476315e-07   -796.23287            0   -796.23287    14079.517 
    2331 8.9373954e-07   -796.23287            0   -796.23287     14079.52 
    2332 1.0321079e-06   -796.23287            0   -796.23287    14079.524 
    2333 1.1796719e-06   -796.23287            0   -796.23287    14079.528 
    2334 1.3362214e-06   -796.23287            0   -796.23287    14079.532 
    2335 1.5015322e-06   -796.23287            0   -796.23287    14079.536 
    2336 1.6753666e-06   -796.23287            0   -796.23287     14079.54 
    2337 1.8574738e-06   -796.23287            0   -796.23287    14079.545 
    2338 2.0475901e-06   -796.23287            0   -796.23287     14079.55 
    2339 2.2454391e-06   -796.23286            0   -796.23286    14079.555 
    2340 2.4507323e-06   -796.23286            0   -796.23286    14079.561 
    2341 2.6631693e-06   -796.23286            0   -796.23286    14079.566 
    2342 2.8824382e-06   -796.23286            0   -796.23286    14079.572 
    2343 3.1082163e-06   -796.23286            0   -796.23286    14079.578 
    2344 3.3401699e-06   -796.23286            0   -796.23286    14079.585 
    2345 3.5779554e-06   -796.23286            0   -796.23286    14079.591 
    2346 3.8212192e-06   -796.23286            0   -796.23286    14079.598 
    2347 4.0695986e-06   -796.23286            0   -796.23286    14079.605 
    2348 4.3227217e-06   -796.23286            0   -796.23286    14079.613 
    2349 4.5802086e-06   -796.23285            0   -796.23285     14079.62 
    2350 4.8416705e-06   -796.23285            0   -796.23285    14079.628 
    2351 5.1067141e-06   -796.23285            0   -796.23285    14079.636 
    2352 5.374931e-06   -796.23285            0   -796.23285    14079.644 
    2353 5.6459279e-06   -796.23285            0   -796.23285    14079.653 
    2354 5.9192391e-06   -796.23285            0   -796.23285    14079.661 
    2355 6.1945041e-06   -796.23285            0   -796.23285     14079.67 
    2356 6.4697785e-06   -796.23284            0   -796.23284    14079.679 
    2357 6.7265319e-06   -796.23284            0   -796.23284    14079.689 
    2358 6.6129078e-06   -796.23284            0   -796.23284    14079.695 
    2359 2.7542491e-06   -796.23284            0   -796.23284    14079.708 
    2360 2.069355e-09   -796.23284            0   -796.23284    14079.708 
    2361 5.7555906e-09   -796.23284            0   -796.23284    14079.708 
    2362 1.2070926e-08   -796.23284            0   -796.23284    14079.708 
    2363 2.2282953e-08   -796.23284            0   -796.23284    14079.707 
    2364 3.9120663e-08   -796.23284            0   -796.23284    14079.706 
    2365 6.6707686e-08   -796.23284            0   -796.23284    14079.706 
    2366 1.0470183e-07   -796.23284            0   -796.23284    14079.706 
    2367 1.4433877e-07   -796.23284            0   -796.23284    14079.707 
    2368 1.8468289e-07   -796.23284            0   -796.23284    14079.708 
    2369 2.2887333e-07   -796.23284            0   -796.23284     14079.71 
    2370 2.7758857e-07   -796.23284            0   -796.23284    14079.712 
    2371 3.3079169e-07   -796.23284            0   -796.23284    14079.714 
    2372 3.8840805e-07   -796.23284            0   -796.23284    14079.716 
    2373 4.5035599e-07   -796.23284            0   -796.23284    14079.718 
    2374 5.1654549e-07   -796.23284            0   -796.23284     14079.72 
    2375 5.8687969e-07   -796.23284            0   -796.23284    14079.723 
    2376 6.6125522e-07   -796.23284            0   -796.23284    14079.726 
    2377 7.395623e-07   -796.23284            0   -796.23284    14079.729 
    2378 8.2168492e-07   -796.23284            0   -796.23284    14079.732 
    2379 9.0750095e-07   -796.23283            0   -796.23283    14079.735 
    2380 9.9688233e-07   -796.23283            0   -796.23283    14079.739 
    2381 1.0896953e-06   -796.23283            0   -796.23283    14079.742 
    2382 1.1858003e-06   -796.23283            0   -796.23283    14079.746 
    2383 1.2850528e-06   -796.23283            0   -796.23283     14079.75 
    2384 1.3873026e-06   -796.23283            0   -796.23283    14079.754 
    2385 1.4923949e-06   -796.23283            0   -796.23283    14079.758 
    2386 1.6001699e-06   -796.23283            0   -796.23283    14079.763 
    2387 1.7104631e-06   -796.23283            0   -796.23283    14079.767 
    2388 1.8231062e-06   -796.23283            0   -796.23283    14079.772 
    2389 1.9379258e-06   -796.23283            0   -796.23283    14079.777 
    2390 2.0547467e-06   -796.23283            0   -796.23283    14079.782 
    2391 2.1733845e-06   -796.23283            0   -796.23283    14079.787 
    2392 2.2936666e-06   -796.23283            0   -796.23283    14079.793 
    2393 2.4153696e-06   -796.23282            0   -796.23282    14079.798 
    2394 2.5383897e-06   -796.23282            0   -796.23282    14079.804 
    2395 2.6618875e-06   -796.23282            0   -796.23282    14079.809 
    2396 2.7833726e-06   -796.23282            0   -796.23282    14079.815 
    2397 2.8463766e-06   -796.23282            0   -796.23282    14079.822 
    2398 2.2298278e-06   -796.23282            0   -796.23282    14079.824 
    2399 1.676385e-07   -796.23282            0   -796.23282    14079.828 
    2400 1.4909684e-07   -796.23282            0   -796.23282    14079.829 
    2401 1.7692392e-07   -796.23282            0   -796.23282     14079.83 
    2402 2.0732592e-07   -796.23282            0   -796.23282    14079.832 
    2403 2.3996803e-07   -796.23282            0   -796.23282    14079.834 
    2404 2.7481462e-07   -796.23282            0   -796.23282    14079.835 
    2405 3.1180922e-07   -796.23282            0   -796.23282    14079.837 
    2406 3.5089854e-07   -796.23282            0   -796.23282    14079.839 
    2407 3.9202262e-07   -796.23282            0   -796.23282    14079.841 
    2408 4.3512041e-07   -796.23282            0   -796.23282    14079.844 
    2409 4.8012588e-07   -796.23282            0   -796.23282    14079.846 
    2410 5.2697162e-07   -796.23282            0   -796.23282    14079.849 
    2411 5.7558526e-07   -796.23282            0   -796.23282    14079.851 
    2412 6.2589397e-07   -796.23282            0   -796.23282    14079.854 
    2413 6.7781867e-07   -796.23282            0   -796.23282    14079.857 
    2414 7.3128288e-07   -796.23281            0   -796.23281     14079.86 
    2415 7.8619851e-07   -796.23281            0   -796.23281    14079.863 
    2416 8.4249146e-07   -796.23281            0   -796.23281    14079.866 
    2417 9.000515e-07   -796.23281            0   -796.23281    14079.869 
    2418 9.5883403e-07   -796.23281            0   -796.23281    14079.873 
    2419 1.0186064e-06   -796.23281            0   -796.23281    14079.876 
    2420 1.0793934e-06   -796.23281            0   -796.23281     14079.88 
    2421 1.1390167e-06   -796.23281            0   -796.23281    14079.884 
    2422 1.1886855e-06   -796.23281            0   -796.23281    14079.887 
    2423 1.1293996e-06   -796.23281            0   -796.23281    14079.892 
    2424 5.5541491e-07   -796.23281            0   -796.23281    14079.892 
    2425 4.030906e-08   -796.23281            0   -796.23281    14079.894 
    2426 6.2138963e-08   -796.23281            0   -796.23281    14079.895 
    2427 7.7242937e-08   -796.23281            0   -796.23281    14079.896 
    2428 9.3112141e-08   -796.23281            0   -796.23281    14079.897 
    2429 1.1038021e-07   -796.23281            0   -796.23281    14079.898 
    2430 1.2903033e-07   -796.23281            0   -796.23281    14079.899 
    2431 1.4903591e-07   -796.23281            0   -796.23281    14079.901 
    2432 1.7036677e-07   -796.23281            0   -796.23281    14079.902 
    2433 1.9299087e-07   -796.23281            0   -796.23281    14079.904 
    2434 2.1687397e-07   -796.23281            0   -796.23281    14079.905 
    2435 2.4197986e-07   -796.23281            0   -796.23281    14079.907 
    2436 2.6827027e-07   -796.23281            0   -796.23281    14079.909 
    2437 2.9570506e-07   -796.23281            0   -796.23281    14079.911 
    2438 3.2424214e-07   -796.23281            0   -796.23281    14079.913 
    2439 3.5383768e-07   -796.23281            0   -796.23281    14079.915 
    2440  3.84446e-07   -796.23281            0   -796.23281    14079.917 
    2441 4.1601982e-07   -796.23281            0   -796.23281    14079.919 
    2442 4.4851015e-07   -796.23281            0   -796.23281    14079.921 
    2443 4.8186657e-07    -796.2328            0    -796.2328    14079.924 
    2444 5.1603693e-07    -796.2328            0    -796.2328    14079.926 
    2445 5.5096823e-07    -796.2328            0    -796.2328    14079.929 
    2446 5.8660487e-07    -796.2328            0    -796.2328    14079.931 
    2447 6.2289295e-07    -796.2328            0    -796.2328    14079.934 
    2448   6.5977e-07    -796.2328            0    -796.2328    14079.937 
    2449 6.9719129e-07    -796.2328            0    -796.2328     14079.94 
    2450 7.3505145e-07    -796.2328            0    -796.2328    14079.943 
    2451 7.7335933e-07    -796.2328            0    -796.2328    14079.946 
    2452 8.1108944e-07    -796.2328            0    -796.2328    14079.949 
    2453 8.4284279e-07    -796.2328            0    -796.2328    14079.952 
    2454 7.8562266e-07    -796.2328            0    -796.2328    14079.957 
    2455 2.6825721e-07    -796.2328            0    -796.2328    14079.956 
    2456 4.9102446e-09    -796.2328            0    -796.2328    14079.956 
    2457 8.4247827e-09    -796.2328            0    -796.2328    14079.957 
    2458 1.3656612e-08    -796.2328            0    -796.2328    14079.958 
    2459 1.9920469e-08    -796.2328            0    -796.2328    14079.958 
    2460 2.6407396e-08    -796.2328            0    -796.2328    14079.959 
    2461 3.3388265e-08    -796.2328            0    -796.2328     14079.96 
    2462 4.1101578e-08    -796.2328            0    -796.2328     14079.96 
    2463 4.9577446e-08    -796.2328            0    -796.2328    14079.961 
    2464 5.8807938e-08    -796.2328            0    -796.2328    14079.962 
    2465 6.8780326e-08    -796.2328            0    -796.2328    14079.963 
    2466 7.947966e-08    -796.2328            0    -796.2328    14079.964 
    2467 9.0889753e-08    -796.2328            0    -796.2328    14079.965 
    2468 1.0299327e-07    -796.2328            0    -796.2328    14079.966 
    2469 1.1577175e-07    -796.2328            0    -796.2328    14079.967 
    2470 1.2920561e-07    -796.2328            0    -796.2328    14079.968 
    2471 1.4327422e-07    -796.2328            0    -796.2328    14079.969 
    2472 1.5795588e-07    -796.2328            0    -796.2328    14079.971 
    2473 1.732279e-07    -796.2328            0    -796.2328    14079.972 
    2474 1.8906658e-07    -796.2328            0    -796.2328    14079.974 
    2475 2.0544729e-07    -796.2328            0    -796.2328    14079.975 
    2476 2.2234451e-07    -796.2328            0    -796.2328    14079.977 
    2477 2.3973181e-07    -796.2328            0    -796.2328    14079.979 
    2478 2.5758197e-07    -796.2328            0    -796.2328     14079.98 
    2479 2.7586693e-07    -796.2328            0    -796.2328    14079.982 
    2480 2.9455793e-07    -796.2328            0    -796.2328    14079.984 
    2481 3.1362542e-07    -796.2328            0    -796.2328    14079.986 
    2482 3.3303937e-07   -796.23279            0   -796.23279    14079.988 
    2483 3.5276867e-07   -796.23279            0   -796.23279     14079.99 
    2484 3.7278285e-07   -796.23279            0   -796.23279    14079.992 
    2485 3.9304748e-07   -796.23279            0   -796.23279    14079.994 
    2486 4.135377e-07   -796.23279            0   -796.23279    14079.997 
    2487 4.3419587e-07   -796.23279            0   -796.23279    14079.999 
    2488 4.5505926e-07   -796.23279            0   -796.23279    14080.001 
    2489 4.756895e-07   -796.23279            0   -796.23279    14080.004 
    2490 4.9533464e-07   -796.23279            0   -796.23279    14080.006 
    2491 4.8381827e-07   -796.23279            0   -796.23279     14080.01 
    2492 2.3146803e-07   -796.23279            0   -796.23279    14080.008 
    2493 7.2585621e-10   -796.23279            0   -796.23279    14080.008 
Loop time of 357.296 on 16 procs for 653 steps with 127 atoms

99.2% CPU use with 16 MPI tasks x no OpenMP threads

Minimization stats:
  Stopping criterion = energy tolerance
  Energy initial, next-to-last, final = 
        -796.321301286     -796.232791426     -796.232791421
  Force two-norm initial, final = 1.91964e-06 8.51531e-05
  Force max component initial, final = 1.70744e-06 4.06641e-05
  Final line search alpha, max atom move = 0 0
  Iterations, force evaluations = 653 653

MPI task timing breakdown:
Section |  min time  |  avg time  |  max time  |%varavg| %total
---------------------------------------------------------------
Pair    | 138.03     | 159.26     | 167.71     |  51.2 | 44.57
Neigh   | 0          | 0          | 0          |   0.0 |  0.00
Comm    | 0.070373   | 8.519      | 29.742     | 221.2 |  2.38
Output  | 0.099642   | 0.10016    | 0.10087    |   0.1 |  0.03
Modify  | 187.18     | 187.18     | 187.18     |   0.0 | 52.39
Other   |            | 2.237      |            |       |  0.63

Nlocal:    7.9375 ave 8 max 7 min
Histogram: 1 0 0 0 0 0 0 0 0 15
Nghost:    821.562 ave 828 max 816 min
Histogram: 4 0 0 4 0 2 2 0 2 2
Neighs:    0 ave 0 max 0 min
Histogram: 16 0 0 0 0 0 0 0 0 0
FullNghs:  1600.5 ave 1621 max 1416 min
Histogram: 1 0 0 0 0 0 0 0 0 15

Total # of neighbors = 25608
Ave neighs/atom = 201.638
Neighbor list builds = 0
Dangerous builds = 0
Total wall time: 0:22:55
