LAMMPS (12 Dec 2018)
Processor partition = 4
units         metal
atom_style    atomic
neighbor      1.0 bin
neigh_modify  every 1 delay 0 check yes

boundary        p p p
atom_modify map array sort 0 0.0
variable	u uloop 8

read_data   initial.lammps
  orthogonal box = (0 0 0) to (10.0025 12.3537 10.615)
  2 by 4 by 2 MPI processor grid
  reading atoms ...
  127 atoms
pair_style  nnp3v
pair_coeff  * * lammps-force.nnp Li P O
Reading potential file lammps-force.nnp with DATE: 20201105
min_style   quickmin
minimize    1.0e-6 1.0e-4 1000 10000
Neighbor list info ...
  update every 1 steps, delay 0 steps, check yes
  max neighbors/atom: 2000, page size: 100000
  master list distance cutoff = 8
  ghost atom cutoff = 8
  binsize = 4, bins = 3 4 3
  1 neighbor lists, perpetual/occasional/extra = 1 0 0
  (1) pair nnp3v, perpetual
      attributes: full, newton on
      pair build: full/bin/atomonly
      stencil: full/bin/3d
      bin: standard
Per MPI rank memory allocation (min/avg/max) = 2.736 | 2.736 | 2.736 Mbytes
Step Temp E_pair E_mol TotEng Press 
       0            0   -796.68047            0   -796.68047     13401.66 
       6  0.092325754   -796.68154            0   -796.68004    13408.421 
Loop time of 3.74474 on 16 procs for 6 steps with 127 atoms

86.6% CPU use with 16 MPI tasks x no OpenMP threads

Minimization stats:
  Stopping criterion = energy tolerance
  Energy initial, next-to-last, final = 
        -796.680469343     -796.681189813     -796.681544239
  Force two-norm initial, final = 0.292034 0.283352
  Force max component initial, final = 0.0445202 0.0435203
  Final line search alpha, max atom move = 0 0
  Iterations, force evaluations = 6 6

MPI task timing breakdown:
Section |  min time  |  avg time  |  max time  |%varavg| %total
---------------------------------------------------------------
Pair    | 1.7813     | 2.2494     | 3.6686     |  48.8 | 60.07
Neigh   | 0          | 0          | 0          |   0.0 |  0.00
Comm    | 0.047656   | 1.4492     | 1.9109     |  60.6 | 38.70
Output  | 0          | 0          | 0          |   0.0 |  0.00
Modify  | 0          | 0          | 0          |   0.0 |  0.00
Other   |            | 0.04613    |            |       |  1.23

Nlocal:    7.9375 ave 8 max 7 min
Histogram: 1 0 0 0 0 0 0 0 0 15
Nghost:    819.812 ave 824 max 816 min
Histogram: 4 0 0 0 0 8 0 1 1 2
Neighs:    0 ave 0 max 0 min
Histogram: 16 0 0 0 0 0 0 0 0 0
FullNghs:  1602 ave 1623 max 1420 min
Histogram: 1 0 0 0 0 0 0 0 1 14

Total # of neighbors = 25632
Ave neighs/atom = 201.827
Neighbor list builds = 0
Dangerous builds = 0

reset_timestep	0

#timestep   0.001
#velocity   all create 1000 87287

dump   1 all atom 1 dump.neb.$u
dump   1 all atom 1 dump.neb.5
fix    2 all neb 1.0 parallel neigh
dump   2 all atom 1 test.dump

thermo          1
neb 0.00000000001 0.0 10000 5000 1 final final.lammps
Per MPI rank memory allocation (min/avg/max) = 4.736 | 4.737 | 4.737 Mbytes
Step Temp E_pair E_mol TotEng Press 
       0            0   -794.31304            0   -794.31304    16210.427 
       1    5.4138639   -794.31304            0   -794.22487    16282.229 
       2    21.756311   -794.47339            0   -794.11905    16370.062 
       3     46.63551   -794.74896            0   -793.98942    16508.822 
       4    72.892011   -795.06039            0   -793.87321    16704.394 
       5     93.66658     -795.339            0   -793.81347    16897.229 
       6    104.56819   -795.55338            0    -793.8503    16923.883 
       7    100.86162   -795.70478            0   -794.06207    16559.812 
       8    90.762973   -795.81022            0   -794.33198    15932.781 
       9     86.97859   -795.88447            0   -794.46787     15474.98 
      10    81.558851   -795.93657            0   -794.60824    15246.058 
      11    75.308731   -795.97266            0   -794.74612    15090.011 
      12    81.931597   -795.98759            0   -794.65319    15210.166 
      13    10.271497   -795.99934            0   -795.83205    14220.933 
      14    3.9219408   -796.00423            0   -795.94035    14139.435 
      15    2.5390134   -796.00839            0   -795.96704     14125.24 
      16    2.8318422   -796.01268            0   -795.96656    14130.647 
      17    3.1931405   -796.01707            0   -795.96507    14138.309 
      18    3.5624652   -796.02154            0   -795.96352     14145.73 
      19     3.941268   -796.02605            0   -795.96185    14154.026 
      20    4.3233478   -796.03057            0   -795.96015    14162.228 
      21    4.7084652   -796.03507            0   -795.95839    14171.073 
      22    5.0912564   -796.03955            0   -795.95663     14179.47 
      23    5.4723977   -796.04396            0   -795.95483    14188.638 
      24    5.8435742    -796.0483            0   -795.95312    14196.268 
      25    6.2140863   -796.05253            0   -795.95132    14206.208 
      26    6.5644434   -796.05663            0   -795.94972     14210.09 
      27    7.0156529   -796.06049            0   -795.94622    14228.653 
      28    7.7106797   -796.06341            0   -795.93783    14216.315 
      29    5.8755824    -796.0652            0   -795.96951    14226.609 
      30   0.63009927   -796.06626            0     -796.056    14145.219 
      31   0.37735506   -796.06702            0   -796.06087    14137.468 
      32   0.35741366   -796.06777            0   -796.06195    14136.836 
      33   0.41809004   -796.06857            0   -796.06176    14138.108 
      34   0.48651995   -796.06944            0   -796.06151    14139.481 
      35   0.55888262   -796.07035            0   -796.06125    14140.835 
      36   0.63489195   -796.07131            0   -796.06097    14142.192 
      37   0.71419662   -796.07232            0   -796.06069    14143.555 
      38    0.7964312   -796.07336            0   -796.06039     14144.92 
      39   0.88121913   -796.07444            0   -796.06009     14146.28 
      40   0.96817536   -796.07555            0   -796.05978    14147.621 
      41    1.0569074   -796.07669            0   -796.05947    14148.934 
      42    1.1470226   -796.07784            0   -796.05916    14150.206 
      43    1.2381267   -796.07901            0   -796.05885     14151.42 
      44    1.3298302    -796.0802            0   -796.05854     14152.56 
      45    1.4217437   -796.08139            0   -796.05823    14153.608 
      46    1.5134878   -796.08258            0   -796.05793    14154.562 
      47    1.6047034   -796.08377            0   -796.05764    14155.405 
      48    1.6950438   -796.08496            0   -796.05735    14156.116 
      49    1.7841692   -796.08614            0   -796.05708    14156.696 
      50    1.8717855   -796.08731            0   -796.05682    14157.132 
      51    1.9575762   -796.08846            0   -796.05658    14157.414 
      52    2.0413468   -796.08959            0   -796.05635     14157.53 
      53    2.1226866   -796.09071            0   -796.05613    14157.462 
      54    2.2019089   -796.09179            0   -796.05593    14157.229 
      55    2.2770735   -796.09285            0   -796.05577    14156.715 
      56    2.3536786   -796.09389            0   -796.05555    14156.342 
      57    2.3977055   -796.09488            0   -796.05583    14154.024 
      58    2.3486891   -796.09565            0    -796.0574    14156.937 
      59   0.48833137   -796.09596            0   -796.08801    14125.395 
      60  0.041247165   -796.09607            0    -796.0954    14120.431 
      61  0.043062515   -796.09618            0   -796.09548    14120.751 
      62  0.050399524   -796.09631            0   -796.09549    14120.735 
      63  0.060140041   -796.09644            0   -796.09546    14120.586 
      64  0.070955714   -796.09659            0   -796.09543    14120.385 
      65   0.08260251   -796.09675            0    -796.0954    14120.154 
      66  0.095014164   -796.09692            0   -796.09537    14119.893 
      67   0.10815028    -796.0971            0   -796.09534    14119.603 
      68   0.12197331   -796.09729            0    -796.0953    14119.283 
      69   0.13644421   -796.09749            0   -796.09527    14118.932 
      70    0.1515227    -796.0977            0   -796.09523    14118.545 
      71   0.16716756   -796.09792            0   -796.09519    14118.125 
      72   0.18333571   -796.09814            0   -796.09516    14117.669 
      73   0.19998352   -796.09838            0   -796.09512    14117.175 
      74   0.21706694   -796.09862            0   -796.09508    14116.642 
      75   0.23454151   -796.09886            0   -796.09504    14116.066 
      76   0.25236302   -796.09912            0   -796.09501    14115.444 
      77   0.27048652   -796.09938            0   -796.09497    14114.773 
      78    0.2888683   -796.09964            0   -796.09493    14114.052 
      79   0.30746437   -796.09991            0    -796.0949    14113.282 
      80   0.32623361   -796.10018            0   -796.09487     14112.46 
      81   0.34513334   -796.10046            0   -796.09483    14111.584 
      82   0.36412374   -796.10073            0    -796.0948    14110.652 
      83   0.38316464   -796.10102            0   -796.09478    14109.663 
      84   0.40222242    -796.1013            0   -796.09475    14108.611 
      85   0.42125509   -796.10159            0   -796.09473    14107.496 
      86   0.44025084   -796.10187            0    -796.0947    14106.322 
      87   0.45911354   -796.10216            0   -796.09468    14105.066 
      88   0.47803052   -796.10245            0   -796.09467      14103.8 
      89   0.49626328   -796.10274            0   -796.09466     14102.27 
      90   0.51712055   -796.10303            0   -796.09461    14101.394 
      91   0.53860962   -796.10331            0   -796.09454    14097.806 
      92   0.70956082   -796.10347            0   -796.09191    14106.502 
      93   0.23450977   -796.10363            0   -796.09981    14092.808 
      94  0.022632243   -796.10368            0   -796.10331    14090.293 
      95  0.024082107   -796.10374            0   -796.10335    14089.956 
      96  0.027770858    -796.1038            0   -796.10335    14089.614 
      97   0.03168814   -796.10387            0   -796.10335    14089.232 
      98  0.035833535   -796.10394            0   -796.10335    14088.816 
      99  0.040197734   -796.10401            0   -796.10336    14088.368 
     100  0.044773108   -796.10409            0   -796.10336    14087.889 
     101  0.049551021   -796.10417            0   -796.10336     14087.38 
     102  0.054522912   -796.10426            0   -796.10337     14086.84 
     103  0.059679782   -796.10435            0   -796.10337    14086.269 
     104  0.065012517   -796.10444            0   -796.10338    14085.668 
     105   0.07051172   -796.10453            0   -796.10339    14085.034 
     106  0.076167979   -796.10463            0   -796.10339    14084.369 
     107  0.081971643   -796.10474            0    -796.1034    14083.671 
     108  0.087913153   -796.10484            0   -796.10341    14082.942 
     109  0.093982693   -796.10495            0   -796.10342    14082.179 
     110   0.10017091   -796.10507            0   -796.10343    14081.381 
     111   0.10646767   -796.10518            0   -796.10345    14080.548 
     112   0.11286407    -796.1053            0   -796.10346    14079.679 
     113   0.11934876   -796.10542            0   -796.10348    14078.776 
     114   0.12591679   -796.10554            0   -796.10349    14077.841 
     115    0.1325484   -796.10567            0   -796.10351    14076.867 
     116   0.13926118    -796.1058            0   -796.10353    14075.872 
     117   0.14597245   -796.10593            0   -796.10355    14074.809 
     118   0.15287596   -796.10606            0   -796.10357    14073.807 
     119   0.15924876    -796.1062            0   -796.10361    14072.479 
     120   0.16634651   -796.10634            0   -796.10363    14072.061 
     121   0.15818834   -796.10646            0   -796.10388    14068.599 
     122   0.07121404   -796.10652            0   -796.10536    14070.072 
     123 0.0037985938   -796.10653            0   -796.10647    14068.406 
     124 0.0041776136   -796.10655            0   -796.10648    14067.772 
     125 0.0047025629   -796.10657            0   -796.10649    14067.347 
     126 0.0056691376   -796.10659            0    -796.1065    14067.063 
     127 0.0068757401   -796.10662            0   -796.10651    14066.821 
     128 0.0082071845   -796.10665            0   -796.10652    14066.574 
     129 0.0096476361   -796.10668            0   -796.10652    14066.306 
     130  0.011196589   -796.10671            0   -796.10653    14066.015 
     131  0.012852446   -796.10675            0   -796.10654    14065.701 
     132  0.014612874   -796.10679            0   -796.10655    14065.364 
     133  0.016475374   -796.10683            0   -796.10656    14065.004 
     134  0.018437311   -796.10688            0   -796.10658    14064.621 
     135  0.020495924   -796.10692            0   -796.10659    14064.215 
     136  0.022648329   -796.10697            0    -796.1066    14063.787 
     137  0.024891528   -796.10702            0   -796.10662    14063.336 
     138  0.027222418   -796.10708            0   -796.10663    14062.862 
     139  0.029637799   -796.10713            0   -796.10665    14062.365 
     140  0.032134383   -796.10719            0   -796.10667    14061.845 
     141  0.034708788   -796.10725            0   -796.10668    14061.303 
     142  0.037357586   -796.10731            0    -796.1067    14060.738 
     143  0.040077248   -796.10738            0   -796.10672    14060.151 
     144  0.042864217   -796.10744            0   -796.10675    14059.541 
     145  0.045714887   -796.10751            0   -796.10677    14058.908 
     146  0.048625604   -796.10758            0   -796.10679    14058.253 
     147  0.051592622   -796.10766            0   -796.10682    14057.574 
     148  0.054612254   -796.10773            0   -796.10684    14056.874 
     149  0.057680719   -796.10781            0   -796.10687    14056.151 
     150  0.060794315   -796.10789            0    -796.1069    14055.407 
     151  0.063949215   -796.10797            0   -796.10693    14054.641 
     152  0.067141755   -796.10806            0   -796.10696    14053.854 
     153  0.070367948   -796.10814            0     -796.107    14053.045 
     154  0.073623613   -796.10823            0   -796.10703    14052.216 
     155   0.07690018   -796.10832            0   -796.10707    14051.357 
     156  0.080135522   -796.10841            0   -796.10711    14050.492 
     157  0.082677385    -796.1085            0   -796.10716    14049.539 
     158  0.076590377   -796.10859            0   -796.10735    14048.722 
     159  0.024288175   -796.10864            0   -796.10825    14047.225 
     160 0.00035064517   -796.10865            0   -796.10864    14046.902 
     161 0.00061505318   -796.10865            0   -796.10864    14046.884 
     162 0.0010226534   -796.10866            0   -796.10865     14046.84 
     163  0.001524149   -796.10867            0   -796.10865    14046.762 
     164 0.0020286312   -796.10869            0   -796.10865    14046.649 
     165  0.002542676    -796.1087            0   -796.10866    14046.508 
     166  0.003098347   -796.10872            0   -796.10867    14046.347 
     167  0.003705274   -796.10874            0   -796.10868    14046.167 
     168 0.0043640834   -796.10876            0   -796.10869    14045.971 
     169 0.0050740918   -796.10878            0    -796.1087    14045.758 
     170 0.0058344604    -796.1088            0   -796.10871    14045.528 
     171 0.0066442692   -796.10883            0   -796.10872     14045.28 
     172 0.0075025057   -796.10886            0   -796.10873    14045.015 
     173 0.0084081639   -796.10888            0   -796.10875    14044.733 
     174 0.0093601604   -796.10892            0   -796.10876    14044.434 
     175  0.010357351   -796.10895            0   -796.10878    14044.119 
     176  0.011398532   -796.10898            0    -796.1088    14043.788 
     177  0.012482457   -796.10902            0   -796.10881    14043.439 
     178  0.013607818   -796.10905            0   -796.10883    14043.074 
     179  0.014773241   -796.10909            0   -796.10885    14042.692 
     180  0.015977362   -796.10913            0   -796.10887    14042.294 
     181  0.017218746   -796.10917            0   -796.10889    14041.881 
     182   0.01849591   -796.10922            0   -796.10892    14041.451 
     183  0.019807346   -796.10926            0   -796.10894    14041.006 
     184  0.021151494   -796.10931            0   -796.10896    14040.546 
     185  0.022526786   -796.10936            0   -796.10899     14040.07 
     186  0.023931611   -796.10941            0   -796.10902    14039.579 
     187   0.02536434   -796.10946            0   -796.10904    14039.073 
     188  0.026823186   -796.10951            0   -796.10907    14038.553 
     189  0.028306695   -796.10956            0    -796.1091    14038.017 
     190  0.029812559   -796.10962            0   -796.10913    14037.467 
     191  0.031340448   -796.10968            0   -796.10917    14036.903 
     192  0.032884859   -796.10974            0    -796.1092    14036.322 
     193  0.034454555    -796.1098            0   -796.10924    14035.737 
     194   0.03601745   -796.10986            0   -796.10927    14035.108 
     195  0.037673044   -796.10992            0   -796.10931    14034.561 
     196  0.039181455   -796.10999            0   -796.10935    14033.688 
     197  0.042475518   -796.11005            0   -796.10936     14033.91 
     198  0.048253231    -796.1101            0   -796.10931    14031.102 
     199 0.0098201915   -796.11011            0   -796.10995    14031.825 
     200 0.0029985743   -796.11013            0   -796.11008     14031.97 
     201 0.0026572163   -796.11015            0    -796.1101     14031.78 
     202  0.003056839   -796.11016            0   -796.11011    14031.616 
     203 0.0034805869   -796.11018            0   -796.11012    14031.434 
     204 0.0039310329    -796.1102            0   -796.11014    14031.242 
     205 0.0044061962   -796.11022            0   -796.11015    14031.037 
     206 0.0049060461   -796.11025            0   -796.11017     14030.82 
     207  0.005429759   -796.11027            0   -796.11018    14030.591 
     208  0.005976892   -796.11029            0    -796.1102     14030.35 
     209 0.0065467012   -796.11032            0   -796.11021    14030.097 
     210 0.0071386337   -796.11035            0   -796.11023    14029.833 
     211 0.0077519179   -796.11038            0   -796.11025    14029.557 
     212  0.008385954   -796.11041            0   -796.11027     14029.27 
     213 0.0090398781   -796.11044            0   -796.11029     14028.97 
     214 0.0097131112   -796.11047            0   -796.11031     14028.66 
     215  0.010404641    -796.1105            0   -796.11033    14028.338 
     216  0.011114057   -796.11054            0   -796.11036    14028.006 
     217  0.011839897   -796.11057            0   -796.11038    14027.662 
     218  0.012582513   -796.11061            0    -796.1104    14027.309 
     219   0.01333873   -796.11065            0   -796.11043    14026.942 
     220   0.01411252   -796.11069            0   -796.11046    14026.572 
     221  0.014892221   -796.11073            0   -796.11048    14026.175 
     222  0.015702194   -796.11077            0   -796.11051    14025.806 
     223  0.016478033   -796.11081            0   -796.11054    14025.331 
     224  0.017383306   -796.11086            0   -796.11057    14025.105 
     225  0.017941579    -796.1109            0   -796.11061    14024.175 
     226  0.018008938   -796.11093            0   -796.11064    14025.027 
     227 0.0057915413   -796.11095            0   -796.11086    14023.726 
     228 0.0015446618   -796.11096            0   -796.11094    14023.741 
     229 0.0016086981   -796.11098            0   -796.11095    14023.609 
     230 0.0018536182   -796.11099            0   -796.11096     14023.48 
     231 0.0021138059     -796.111            0   -796.11097     14023.34 
     232 0.0023901733   -796.11102            0   -796.11098    14023.192 
     233 0.0026820452   -796.11104            0   -796.11099    14023.033 
     234 0.0029892194   -796.11106            0   -796.11101    14022.866 
     235 0.0033112923   -796.11107            0   -796.11102    14022.689 
     236 0.0036479376   -796.11109            0   -796.11103    14022.503 
     237 0.0039987512   -796.11112            0   -796.11105    14022.308 
     238 0.0043633602   -796.11114            0   -796.11107    14022.104 
     239 0.0047413308   -796.11116            0   -796.11108     14021.89 
     240 0.0051322568   -796.11118            0    -796.1111    14021.669 
     241 0.0055356695   -796.11121            0   -796.11112    14021.438 
     242 0.0059511459   -796.11124            0   -796.11114    14021.198 
     243 0.0063781651   -796.11126            0   -796.11116     14020.95 
     244  0.006816324   -796.11129            0   -796.11118    14020.694 
     245 0.0072649882   -796.11132            0    -796.1112    14020.429 
     246 0.0077238884   -796.11135            0   -796.11122    14020.156 
     247 0.0081920408   -796.11138            0   -796.11125    14019.874 
     248 0.0086698557   -796.11141            0   -796.11127    14019.586 
     249 0.0091546653   -796.11145            0    -796.1113    14019.285 
     250 0.0096506349   -796.11148            0   -796.11132    14018.986 
     251  0.010144118   -796.11151            0   -796.11135    14018.655 
     252  0.010658541   -796.11155            0   -796.11138    14018.381 
     253  0.011048876   -796.11159            0   -796.11141    14017.921 
     254  0.011063836   -796.11162            0   -796.11144    14017.965 
     255 0.0071962373   -796.11165            0   -796.11153    14016.961 
     256 0.0009343124   -796.11165            0   -796.11164     14017.15 
     257 0.00076995344   -796.11166            0   -796.11165    14017.183 
     258 0.00084205136   -796.11167            0   -796.11166    14017.104 
     259 0.00098089487   -796.11168            0   -796.11167    14017.011 
     260 0.0011305438   -796.11169            0   -796.11168    14016.911 
     261  0.001290139   -796.11171            0   -796.11169    14016.804 
     262 0.0014595418   -796.11172            0    -796.1117    14016.689 
     263  0.001638557   -796.11173            0   -796.11171    14016.568 
     264 0.0018269888   -796.11175            0   -796.11172    14016.439 
     265 0.0020246266   -796.11176            0   -796.11173    14016.303 
     266 0.0022312506   -796.11178            0   -796.11174    14016.161 
     267 0.0024466296    -796.1118            0   -796.11176    14016.011 
     268  0.002670523   -796.11182            0   -796.11177    14015.854 
     269 0.0029026791   -796.11183            0   -796.11179     14015.69 
     270 0.0031428378   -796.11185            0    -796.1118     14015.52 
     271 0.0033907238   -796.11187            0   -796.11182    14015.343 
     272 0.0036460629    -796.1119            0   -796.11184    14015.159 
     273 0.0039085664   -796.11192            0   -796.11185    14014.969 
     274 0.0041779388   -796.11194            0   -796.11187    14014.772 
     275 0.0044538723   -796.11197            0   -796.11189    14014.568 
     276 0.0047360599   -796.11199            0   -796.11191    14014.359 
     277 0.0050241728   -796.11202            0   -796.11193    14014.142 
     278 0.0053179038   -796.11204            0   -796.11196     14013.92 
     279 0.0056168734   -796.11207            0   -796.11198    14013.692 
     280 0.0059208503    -796.1121            0     -796.112    14013.457 
     281 0.0062292269   -796.11213            0   -796.11202    14013.216 
     282 0.0065423127   -796.11215            0   -796.11205    14012.971 
     283 0.0068577975   -796.11219            0   -796.11207    14012.715 
     284 0.0071798251   -796.11222            0    -796.1121    14012.468 
     285 0.0074837428   -796.11225            0   -796.11213     14012.17 
     286 0.0077377786   -796.11228            0   -796.11215    14012.015 
     287 0.0069617167   -796.11231            0    -796.1122    14011.415 
     288 0.0023719458   -796.11232            0   -796.11229     14011.71 
     289 0.00019756709   -796.11233            0   -796.11233    14011.534 
     290 0.00024064583   -796.11233            0   -796.11233    14011.423 
     291 0.00029125467   -796.11234            0   -796.11234     14011.35 
     292 0.0003534727   -796.11235            0   -796.11234    14011.291 
     293 0.00042264689   -796.11235            0   -796.11235    14011.231 
     294 0.00049768279   -796.11236            0   -796.11235    14011.167 
     295 0.00057853711   -796.11237            0   -796.11236    14011.098 
     296 0.00066515072   -796.11238            0   -796.11237    14011.023 
     297 0.0007574303   -796.11239            0   -796.11238    14010.943 
     298 0.00085527476    -796.1124            0   -796.11239    14010.858 
     299 0.00095857667   -796.11241            0    -796.1124    14010.767 
     300 0.0010672223   -796.11242            0   -796.11241    14010.671 
     301 0.0011810915   -796.11244            0   -796.11242     14010.57 
     302 0.0013000584   -796.11245            0   -796.11243    14010.464 
     303 0.0014239909   -796.11246            0   -796.11244    14010.353 
     304 0.0015527512   -796.11248            0   -796.11245    14010.236 
     305 0.0016861959   -796.11249            0   -796.11247    14010.115 
     306  0.001824176   -796.11251            0   -796.11248    14009.988 
     307 0.0019665374   -796.11253            0   -796.11249    14009.857 
     308 0.0021131208   -796.11254            0   -796.11251    14009.721 
     309 0.0022637619   -796.11256            0   -796.11252     14009.58 
     310 0.0024182915   -796.11258            0   -796.11254    14009.434 
     311 0.0025765359    -796.1126            0   -796.11256    14009.283 
     312 0.0027383166   -796.11262            0   -796.11258    14009.128 
     313 0.0029034522   -796.11264            0   -796.11259    14008.968 
     314 0.0030717564   -796.11266            0   -796.11261    14008.804 
     315 0.0032430397   -796.11268            0   -796.11263    14008.635 
     316 0.0034171078   -796.11271            0   -796.11265    14008.461 
     317 0.0035937661   -796.11273            0   -796.11267    14008.284 
     318 0.0037728094   -796.11275            0   -796.11269    14008.102 
     319 0.0039540496   -796.11278            0   -796.11271    14007.916 
     320 0.0041372396    -796.1128            0   -796.11274    14007.725 
     321 0.0043223011   -796.11283            0   -796.11276    14007.531 
     322 0.0045085903   -796.11286            0   -796.11278    14007.332 
     323 0.0046971839   -796.11288            0   -796.11281    14007.134 
     324 0.0048810288   -796.11291            0   -796.11283    14006.912 
     325 0.0050536611   -796.11294            0   -796.11286    14006.763 
     326 0.0047927109   -796.11297            0   -796.11289    14006.337 
     327 0.0018940283   -796.11298            0   -796.11295    14006.607 
     328 1.1021589e-05   -796.11298            0   -796.11298    14006.553 
     329 2.1055134e-05   -796.11299            0   -796.11298    14006.508 
     330 3.4473977e-05   -796.11299            0   -796.11299     14006.45 
     331 5.1215524e-05   -796.11299            0   -796.11299    14006.386 
     332 7.0865734e-05   -796.11299            0   -796.11299    14006.326 
     333 9.3214772e-05     -796.113            0   -796.11299    14006.277 
     334 0.00011888356     -796.113            0     -796.113    14006.236 
     335 0.00014804309     -796.113            0     -796.113      14006.2 
     336 0.00018042655   -796.11301            0   -796.11301    14006.162 
     337 0.00021589106   -796.11301            0   -796.11301    14006.122 
     338 0.00025440095   -796.11302            0   -796.11302    14006.077 
     339 0.00029592693   -796.11303            0   -796.11302    14006.029 
     340 0.00034042734   -796.11304            0   -796.11303    14005.978 
     341 0.00038785428   -796.11304            0   -796.11304    14005.923 
     342 0.00043815635   -796.11305            0   -796.11304    14005.864 
     343 0.00049127886   -796.11306            0   -796.11305    14005.801 
     344 0.00054716388   -796.11307            0   -796.11306    14005.735 
     345 0.00060575033   -796.11308            0   -796.11307    14005.665 
     346 0.00066697399   -796.11309            0   -796.11308    14005.592 
     347 0.00073076756    -796.1131            0   -796.11309    14005.515 
     348 0.00079706086   -796.11311            0    -796.1131    14005.434 
     349 0.00086578084   -796.11312            0   -796.11311    14005.351 
     350 0.00093685161   -796.11314            0   -796.11312    14005.263 
     351 0.0010101945   -796.11315            0   -796.11313    14005.172 
     352 0.0010857284   -796.11316            0   -796.11315    14005.078 
     353 0.0011633696   -796.11318            0   -796.11316    14004.981 
     354 0.0012430318   -796.11319            0   -796.11317     14004.88 
     355 0.0013246265   -796.11321            0   -796.11319    14004.776 
     356 0.0014080631   -796.11322            0    -796.1132    14004.669 
     357 0.0014932486   -796.11324            0   -796.11322    14004.558 
     358 0.0015800877   -796.11326            0   -796.11323    14004.445 
     359  0.001668484   -796.11328            0   -796.11325    14004.328 
     360 0.0017583388   -796.11329            0   -796.11326    14004.208 
     361 0.0018495522   -796.11331            0   -796.11328    14004.086 
     362 0.0019420215   -796.11333            0    -796.1133     14003.96 
     363 0.0020356449   -796.11335            0   -796.11332    14003.831 
     364 0.0021303126   -796.11337            0   -796.11334      14003.7 
     365 0.0022259328   -796.11339            0   -796.11336    14003.566 
     366 0.0023223345   -796.11341            0   -796.11337    14003.429 
     367 0.0024194257   -796.11343            0   -796.11339     14003.29 
     368  0.002514569   -796.11346            0   -796.11342    14003.145 
     369 0.0025837906   -796.11348            0   -796.11344    14003.011 
     370 0.0022802748    -796.1135            0   -796.11346    14002.834 
     371 0.00044649244   -796.11351            0    -796.1135    14002.808 
     372 1.3018671e-05   -796.11351            0   -796.11351    14002.787 
     373 2.2152927e-05   -796.11351            0   -796.11351    14002.768 
     374 3.4769999e-05   -796.11352            0   -796.11352    14002.748 
     375 4.8957628e-05   -796.11352            0   -796.11352    14002.726 
     376 6.3617483e-05   -796.11352            0   -796.11352    14002.704 
     377 7.9328677e-05   -796.11353            0   -796.11352     14002.68 
     378 9.6562682e-05   -796.11353            0   -796.11353    14002.654 
     379 0.00011541905   -796.11353            0   -796.11353    14002.626 
     380 0.00013589226   -796.11354            0   -796.11354    14002.595 
     381 0.00015796241   -796.11354            0   -796.11354    14002.561 
     382 0.00018160635   -796.11355            0   -796.11355    14002.525 
     383 0.00020679887   -796.11356            0   -796.11355    14002.486 
     384 0.00023351301   -796.11356            0   -796.11356    14002.445 
     385 0.00026172009   -796.11357            0   -796.11357    14002.401 
     386 0.00029138974   -796.11358            0   -796.11357    14002.355 
     387 0.00032248993   -796.11359            0   -796.11358    14002.306 
     388 0.00035498698    -796.1136            0   -796.11359    14002.254 
     389 0.00038884568    -796.1136            0    -796.1136      14002.2 
     390 0.00042402922   -796.11361            0   -796.11361    14002.144 
     391 0.00046049933   -796.11362            0   -796.11362    14002.085 
     392 0.00049821625   -796.11363            0   -796.11363    14002.024 
     393 0.00053713883   -796.11364            0   -796.11364    14001.961 
     394 0.00057722453   -796.11366            0   -796.11365    14001.895 
     395 0.00061842949   -796.11367            0   -796.11366    14001.826 
     396 0.00066070859   -796.11368            0   -796.11367    14001.756 
     397 0.00070401549   -796.11369            0   -796.11368    14001.683 
     398 0.00074830268    -796.1137            0   -796.11369    14001.608 
     399 0.00079352153   -796.11372            0    -796.1137    14001.531 
     400 0.00083962234   -796.11373            0   -796.11372    14001.451 
     401 0.00088655442   -796.11375            0   -796.11373     14001.37 
     402 0.00093426615   -796.11376            0   -796.11374    14001.286 
     403 0.00098270497   -796.11378            0   -796.11376      14001.2 
     404 0.0010318175   -796.11379            0   -796.11377    14001.113 
     405   0.00108155   -796.11381            0   -796.11379    14001.023 
     406 0.0011318472   -796.11382            0    -796.1138    14000.931 
     407 0.0011826532   -796.11384            0   -796.11382    14000.837 
     408 0.0012339121   -796.11386            0   -796.11384    14000.742 
     409 0.0012855672   -796.11387            0   -796.11385    14000.644 
     410 0.0013375401   -796.11389            0   -796.11387    14000.545 
     411 0.0013895819   -796.11391            0   -796.11389    14000.445 
     412 0.0014381384   -796.11393            0   -796.11391    14000.339 
     413 0.0014285612   -796.11395            0   -796.11393    14000.248 
     414 0.00077108201   -796.11396            0   -796.11395    14000.132 
     415 5.1891102e-06   -796.11397            0   -796.11396    14000.122 
     416 9.3559186e-06   -796.11397            0   -796.11397    14000.121 
     417 1.6772759e-05   -796.11397            0   -796.11397    14000.118 
     418 2.680682e-05   -796.11397            0   -796.11397    14000.109 
     419 3.596925e-05   -796.11397            0   -796.11397    14000.096 
     420 4.4587832e-05   -796.11398            0   -796.11398     14000.08 
     421 5.3832293e-05   -796.11398            0   -796.11398    14000.062 
     422 6.3906177e-05   -796.11398            0   -796.11398    14000.042 
     423 7.4809934e-05   -796.11399            0   -796.11399     14000.02 
     424 8.653214e-05   -796.11399            0   -796.11399    13999.996 
     425 9.9060544e-05     -796.114            0     -796.114     13999.97 
     426 0.00011238199     -796.114            0     -796.114    13999.943 
     427 0.00012648244   -796.11401            0   -796.11401    13999.914 
     428 0.00014134696   -796.11401            0   -796.11401    13999.883 
     429 0.00015695979   -796.11402            0   -796.11402    13999.851 
     430 0.00017330432   -796.11403            0   -796.11402    13999.817 
     431 0.00019036314   -796.11403            0   -796.11403    13999.781 
     432 0.00020811802   -796.11404            0   -796.11404    13999.743 
     433 0.00022654997   -796.11405            0   -796.11405    13999.704 
     434 0.00024563924   -796.11406            0   -796.11405    13999.663 
     435 0.00026536534   -796.11407            0   -796.11406     13999.62 
     436 0.00028570709   -796.11408            0   -796.11407    13999.576 
     437 0.00030664259   -796.11408            0   -796.11408    13999.531 
     438 0.0003281493   -796.11409            0   -796.11409    13999.483 
     439 0.00035020404    -796.1141            0    -796.1141    13999.434 
     440  0.000372783   -796.11411            0   -796.11411    13999.384 
     441 0.00039586181   -796.11412            0   -796.11412    13999.332 
     442 0.00041941551   -796.11414            0   -796.11413    13999.279 
     443 0.00044341862   -796.11415            0   -796.11414    13999.224 
     444 0.00046784517   -796.11416            0   -796.11415    13999.167 
     445 0.00049266868   -796.11417            0   -796.11416     13999.11 
     446 0.00051786227   -796.11418            0   -796.11417    13999.051 
     447 0.00054339854    -796.1142            0   -796.11419     13998.99 
     448 0.00056924982   -796.11421            0    -796.1142    13998.928 
     449 0.00059538668   -796.11422            0   -796.11421    13998.865 
     450 0.00062177156   -796.11424            0   -796.11423      13998.8 
     451 0.00064825239   -796.11425            0   -796.11424    13998.735 
     452 0.0006732235   -796.11426            0   -796.11425    13998.668 
     453 0.00067479022   -796.11428            0   -796.11427    13998.601 
     454 0.00043049042   -796.11429            0   -796.11428    13998.543 
     455 1.2927838e-05   -796.11429            0   -796.11429     13998.53 
     456 2.6131937e-05    -796.1143            0    -796.1143    13998.518 
     457 3.2989529e-05    -796.1143            0    -796.1143    13998.504 
     458 3.8944489e-05    -796.1143            0    -796.1143    13998.489 
     459 4.537574e-05   -796.11431            0    -796.1143    13998.473 
     460 5.227413e-05   -796.11431            0   -796.11431    13998.455 
     461 5.9632698e-05   -796.11431            0   -796.11431    13998.436 
     462 6.7443782e-05   -796.11432            0   -796.11432    13998.416 
     463 7.5699268e-05   -796.11432            0   -796.11432    13998.394 
     464 8.4390534e-05   -796.11433            0   -796.11433    13998.372 
     465 9.350849e-05   -796.11433            0   -796.11433    13998.348 
     466 0.00010304357   -796.11434            0   -796.11434    13998.323 
     467 0.00011298575   -796.11435            0   -796.11434    13998.296 
     468 0.00012332456   -796.11435            0   -796.11435    13998.269 
     469 0.0001340491   -796.11436            0   -796.11436     13998.24 
     470 0.00014514802   -796.11437            0   -796.11436     13998.21 
     471 0.00015660959   -796.11437            0   -796.11437    13998.179 
     472 0.00016842165   -796.11438            0   -796.11438    13998.146 
     473 0.00018057168   -796.11439            0   -796.11439    13998.113 
     474 0.00019304676    -796.1144            0   -796.11439    13998.078 
     475 0.0002058338    -796.1144            0    -796.1144    13998.042 
     476 0.00021891897   -796.11441            0   -796.11441    13998.005 
     477 0.00023228852   -796.11442            0   -796.11442    13997.968 
     478 0.00024592776   -796.11443            0   -796.11443    13997.928 
     479 0.00025982304   -796.11444            0   -796.11444    13997.888 
     480 0.00027395731   -796.11445            0   -796.11445    13997.847 
     481 0.0002883208   -796.11446            0   -796.11446    13997.805 
     482 0.00030288053   -796.11447            0   -796.11447    13997.762 
     483 0.00031764665   -796.11448            0   -796.11448    13997.718 
     484 0.00033227903   -796.11449            0   -796.11449    13997.672 
     485 0.00034521568   -796.11451            0    -796.1145     13997.63 
     486 0.00033332745   -796.11452            0   -796.11451    13997.571 
     487 0.00016571301   -796.11452            0   -796.11452     13997.57 
     488 5.4078992e-06   -796.11453            0   -796.11453    13997.553 
     489 9.3418561e-06   -796.11453            0   -796.11453    13997.539 
     490 1.3263356e-05   -796.11453            0   -796.11453    13997.528 
     491 1.6458914e-05   -796.11453            0   -796.11453    13997.518 
     492 1.9811417e-05   -796.11453            0   -796.11453    13997.508 
     493 2.3455788e-05   -796.11454            0   -796.11454    13997.496 
     494 2.7394779e-05   -796.11454            0   -796.11454    13997.484 
     495 3.1625123e-05   -796.11454            0   -796.11454    13997.471 
     496 3.6142497e-05   -796.11455            0   -796.11455    13997.457 
     497 4.0942284e-05   -796.11455            0   -796.11455    13997.442 
     498 4.6019557e-05   -796.11456            0   -796.11455    13997.426 
     499 5.1369087e-05   -796.11456            0   -796.11456    13997.409 
     500 5.6985349e-05   -796.11456            0   -796.11456    13997.391 
     501 6.2862528e-05   -796.11457            0   -796.11457    13997.372 
     502 6.8994525e-05   -796.11457            0   -796.11457    13997.352 
     503 7.5374963e-05   -796.11458            0   -796.11458    13997.332 
     504 8.1997194e-05   -796.11459            0   -796.11458     13997.31 
     505 8.8854306e-05   -796.11459            0   -796.11459    13997.287 
     506 9.5939129e-05    -796.1146            0    -796.1146    13997.264 
     507 0.00010324425    -796.1146            0    -796.1146     13997.24 
     508  0.000110762   -796.11461            0   -796.11461    13997.215 
     509 0.00011848449   -796.11462            0   -796.11462    13997.189 
     510 0.00012640361   -796.11463            0   -796.11462    13997.162 
     511 0.00013451102   -796.11463            0   -796.11463    13997.134 
     512 0.00014279816   -796.11464            0   -796.11464    13997.106 
     513 0.00015125632   -796.11465            0   -796.11465    13997.077 
     514 0.0001598765   -796.11466            0   -796.11465    13997.047 
     515 0.00016864975   -796.11467            0   -796.11466    13997.016 
     516 0.00017756636   -796.11467            0   -796.11467    13996.984 
     517 0.00018661805   -796.11468            0   -796.11468    13996.952 
     518 0.00019579162   -796.11469            0   -796.11469    13996.919 
     519 0.00020508808    -796.1147            0    -796.1147    13996.885 
     520 0.00021445532   -796.11471            0   -796.11471     13996.85 
     521 0.00022395348   -796.11472            0   -796.11472    13996.817 
     522 0.00023233827   -796.11473            0   -796.11473    13996.772 
     523 0.00023082745   -796.11474            0   -796.11474    13996.769 
     524 0.00012550214   -796.11475            0   -796.11475    13996.664 
     525 1.8349232e-06   -796.11475            0   -796.11475    13996.674 
     526 2.7966242e-06   -796.11475            0   -796.11475    13996.686 
     527 4.0055023e-06   -796.11475            0   -796.11475    13996.695 
     528 5.3527017e-06   -796.11475            0   -796.11475      13996.7 
     529 6.7883783e-06   -796.11475            0   -796.11475    13996.698 
     530 8.430827e-06   -796.11476            0   -796.11476    13996.693 
     531 1.0278945e-05   -796.11476            0   -796.11476    13996.686 
     532 1.2312194e-05   -796.11476            0   -796.11476    13996.678 
     533 1.4523667e-05   -796.11476            0   -796.11476     13996.67 
     534 1.6910349e-05   -796.11477            0   -796.11477    13996.661 
     535 1.9469804e-05   -796.11477            0   -796.11477    13996.651 
     536 2.2199461e-05   -796.11477            0   -796.11477    13996.641 
     537 2.5096558e-05   -796.11478            0   -796.11478    13996.629 
     538 2.8158159e-05   -796.11478            0   -796.11478    13996.617 
     539 3.1381147e-05   -796.11478            0   -796.11478    13996.605 
     540 3.4762233e-05   -796.11479            0   -796.11479    13996.591 
     541 3.8297957e-05   -796.11479            0   -796.11479    13996.578 
     542 4.1984693e-05    -796.1148            0    -796.1148    13996.563 
     543 4.5818649e-05    -796.1148            0    -796.1148    13996.548 
     544 4.9795877e-05   -796.11481            0    -796.1148    13996.532 
     545 5.3912273e-05   -796.11481            0   -796.11481    13996.515 
     546 5.816358e-05   -796.11482            0   -796.11482    13996.498 
     547 6.2545396e-05   -796.11482            0   -796.11482     13996.48 
     548 6.7053177e-05   -796.11483            0   -796.11483    13996.461 
     549 7.1682237e-05   -796.11483            0   -796.11483    13996.442 
     550 7.6427765e-05   -796.11484            0   -796.11484    13996.422 
     551 8.1284807e-05   -796.11485            0   -796.11484    13996.402 
     552 8.6248317e-05   -796.11485            0   -796.11485    13996.381 
     553 9.1313055e-05   -796.11486            0   -796.11486    13996.359 
     554 9.6473857e-05   -796.11487            0   -796.11487    13996.337 
     555 0.00010172495   -796.11487            0   -796.11487    13996.315 
     556 0.00010706184   -796.11488            0   -796.11488    13996.291 
     557 0.00011247587   -796.11489            0   -796.11489    13996.268 
     558 0.00011797046    -796.1149            0    -796.1149    13996.243 
     559 0.00012350536   -796.11491            0    -796.1149    13996.218 
     560 0.00012914078   -796.11491            0   -796.11491    13996.195 
     561 0.00013395982   -796.11492            0   -796.11492     13996.16 
     562 0.00013226377   -796.11493            0   -796.11493    13996.168 
     563 6.5515379e-05   -796.11494            0   -796.11493    13996.081 
     564 7.2992596e-07   -796.11494            0   -796.11494    13996.087 
     565 1.2049821e-06   -796.11494            0   -796.11494    13996.095 
     566 1.7875298e-06   -796.11494            0   -796.11494    13996.104 
     567 2.4467229e-06   -796.11494            0   -796.11494     13996.11 
     568 3.1671791e-06   -796.11494            0   -796.11494    13996.112 
     569 4.014242e-06   -796.11494            0   -796.11494     13996.11 
     570 5.0082935e-06   -796.11494            0   -796.11494    13996.106 
     571 6.1263342e-06   -796.11494            0   -796.11494    13996.101 
     572 7.3570828e-06   -796.11495            0   -796.11495    13996.096 
     573 8.6972109e-06   -796.11495            0   -796.11495    13996.089 
     574 1.0145047e-05   -796.11495            0   -796.11495    13996.083 
     575 1.169914e-05   -796.11495            0   -796.11495    13996.076 
     576 1.3357945e-05   -796.11496            0   -796.11496    13996.068 
     577 1.5119803e-05   -796.11496            0   -796.11496     13996.06 
     578 1.6982947e-05   -796.11496            0   -796.11496    13996.051 
     579 1.8945501e-05   -796.11497            0   -796.11496    13996.042 
     580 2.1005481e-05   -796.11497            0   -796.11497    13996.032 
     581 2.3160803e-05   -796.11497            0   -796.11497    13996.021 
     582 2.5409277e-05   -796.11498            0   -796.11498    13996.011 
     583 2.7748614e-05   -796.11498            0   -796.11498    13995.999 
     584 3.0176428e-05   -796.11498            0   -796.11498    13995.988 
     585 3.2690236e-05   -796.11499            0   -796.11499    13995.975 
     586 3.5287465e-05   -796.11499            0   -796.11499    13995.963 
     587 3.7965447e-05     -796.115            0     -796.115    13995.949 
     588 4.0721431e-05     -796.115            0     -796.115    13995.936 
     589 4.3552576e-05   -796.11501            0   -796.11501    13995.922 
     590 4.6455965e-05   -796.11501            0   -796.11501    13995.907 
     591 4.9428589e-05   -796.11502            0   -796.11502    13995.892 
     592 5.2467388e-05   -796.11502            0   -796.11502    13995.876 
     593 5.5569169e-05   -796.11503            0   -796.11503    13995.861 
     594 5.8730817e-05   -796.11504            0   -796.11504    13995.844 
     595 6.1948748e-05   -796.11504            0   -796.11504    13995.827 
     596 6.5220456e-05   -796.11505            0   -796.11505     13995.81 
     597 6.8539889e-05   -796.11506            0   -796.11505    13995.793 
     598 7.1911588e-05   -796.11506            0   -796.11506    13995.775 
     599 7.5300143e-05   -796.11507            0   -796.11507    13995.756 
     600 7.875367e-05   -796.11508            0   -796.11508     13995.74 
     601 8.1266352e-05   -796.11508            0   -796.11508     13995.71 
     602 7.5598215e-05   -796.11509            0   -796.11509    13995.732 
     603 1.9601122e-05   -796.11509            0   -796.11509    13995.675 
     604 1.5543791e-06   -796.11509            0   -796.11509    13995.682 
     605 1.9555378e-06   -796.11509            0   -796.11509    13995.686 
     606 2.4342277e-06    -796.1151            0    -796.1151    13995.686 
     607 3.0345801e-06    -796.1151            0    -796.1151    13995.683 
     608 3.7233972e-06    -796.1151            0    -796.1151    13995.679 
     609 4.4845214e-06    -796.1151            0    -796.1151    13995.675 
     610 5.3146017e-06    -796.1151            0    -796.1151    13995.671 
     611 6.2124898e-06    -796.1151            0    -796.1151    13995.666 
     612 7.1772918e-06   -796.11511            0   -796.11511     13995.66 
     613 8.2080574e-06   -796.11511            0   -796.11511    13995.655 
     614 9.3037644e-06   -796.11511            0   -796.11511    13995.648 
     615 1.0463322e-05   -796.11511            0   -796.11511    13995.642 
     616 1.1685573e-05   -796.11512            0   -796.11512    13995.635 
     617 1.2969291e-05   -796.11512            0   -796.11512    13995.628 
     618 1.4313187e-05   -796.11512            0   -796.11512     13995.62 
     619 1.5715905e-05   -796.11513            0   -796.11513    13995.612 
     620 1.7176029e-05   -796.11513            0   -796.11513    13995.604 
     621 1.8692078e-05   -796.11513            0   -796.11513    13995.595 
     622 2.0262515e-05   -796.11514            0   -796.11514    13995.586 
     623 2.188574e-05   -796.11514            0   -796.11514    13995.576 
     624 2.3560099e-05   -796.11514            0   -796.11514    13995.567 
     625 2.5283882e-05   -796.11515            0   -796.11515    13995.556 
     626 2.7055322e-05   -796.11515            0   -796.11515    13995.546 
     627 2.8872608e-05   -796.11516            0   -796.11516    13995.535 
     628 3.073386e-05   -796.11516            0   -796.11516    13995.524 
     629 3.2637189e-05   -796.11517            0   -796.11517    13995.512 
     630 3.4580568e-05   -796.11517            0   -796.11517      13995.5 
     631 3.6562157e-05   -796.11518            0   -796.11518    13995.488 
     632 3.8579426e-05   -796.11518            0   -796.11518    13995.476 
     633 4.0631689e-05   -796.11519            0   -796.11519    13995.463 
     634 4.271222e-05   -796.11519            0   -796.11519    13995.449 
     635 4.4832027e-05    -796.1152            0    -796.1152    13995.437 
     636 4.6920377e-05   -796.11521            0    -796.1152    13995.421 
     637 4.892442e-05   -796.11521            0   -796.11521    13995.414 
     638 4.708302e-05   -796.11522            0   -796.11522    13995.375 
     639 2.0754415e-05   -796.11522            0   -796.11522    13995.415 
     640 2.8927893e-07   -796.11522            0   -796.11522    13995.409 
     641 4.7566868e-07   -796.11522            0   -796.11522    13995.402 
     642  6.94785e-07   -796.11522            0   -796.11522    13995.395 
     643 9.363458e-07   -796.11522            0   -796.11522    13995.388 
     644 1.2163187e-06   -796.11522            0   -796.11522    13995.383 
     645 1.5594924e-06   -796.11522            0   -796.11522     13995.38 
     646 1.9596821e-06   -796.11523            0   -796.11523    13995.377 
     647 2.4068271e-06   -796.11523            0   -796.11523    13995.374 
     648 2.8984783e-06   -796.11523            0   -796.11523    13995.371 
     649 3.4342868e-06   -796.11523            0   -796.11523    13995.368 
     650 4.013807e-06   -796.11523            0   -796.11523    13995.364 
     651 4.6364722e-06   -796.11523            0   -796.11523     13995.36 
     652 5.3016712e-06   -796.11524            0   -796.11524    13995.355 
     653 6.0087479e-06   -796.11524            0   -796.11524    13995.351 
     654 6.7570021e-06   -796.11524            0   -796.11524    13995.346 
     655 7.5456897e-06   -796.11524            0   -796.11524    13995.341 
     656 8.3740243e-06   -796.11524            0   -796.11524    13995.335 
     657 9.2411768e-06   -796.11525            0   -796.11525    13995.329 
     658 1.0146277e-05   -796.11525            0   -796.11525    13995.323 
     659 1.1088415e-05   -796.11525            0   -796.11525    13995.317 
     660 1.206664e-05   -796.11526            0   -796.11526     13995.31 
     661 1.3079963e-05   -796.11526            0   -796.11526    13995.303 
     662 1.4127358e-05   -796.11526            0   -796.11526    13995.296 
     663 1.520776e-05   -796.11527            0   -796.11527    13995.288 
     664 1.6320071e-05   -796.11527            0   -796.11527    13995.281 
     665 1.7463156e-05   -796.11527            0   -796.11527    13995.273 
     666 1.8635847e-05   -796.11528            0   -796.11528    13995.264 
     667 1.9836943e-05   -796.11528            0   -796.11528    13995.256 
     668 2.1065216e-05   -796.11529            0   -796.11529    13995.247 
     669 2.2319389e-05   -796.11529            0   -796.11529    13995.238 
     670 2.359821e-05   -796.11529            0   -796.11529    13995.229 
     671 2.4900245e-05    -796.1153            0    -796.1153    13995.219 
     672 2.6224495e-05    -796.1153            0    -796.1153    13995.209 
     673 2.7568442e-05   -796.11531            0   -796.11531    13995.199 
     674 2.8934309e-05   -796.11531            0   -796.11531    13995.189 
     675 3.0304426e-05   -796.11532            0   -796.11532    13995.178 
     676 3.1690936e-05   -796.11532            0   -796.11532     13995.17 
     677 3.2343277e-05   -796.11533            0   -796.11533     13995.15 
     678 2.577486e-05   -796.11533            0   -796.11533    13995.172 
     679 1.6811675e-06   -796.11533            0   -796.11533    13995.155 
     680 1.6935463e-06   -796.11534            0   -796.11534    13995.145 
     681 1.7688478e-06   -796.11534            0   -796.11534    13995.143 
     682 2.107485e-06   -796.11534            0   -796.11534     13995.14 
     683 2.4743697e-06   -796.11534            0   -796.11534    13995.137 
     684 2.8695027e-06   -796.11534            0   -796.11534    13995.134 
     685 3.292431e-06   -796.11534            0   -796.11534    13995.131 
     686 3.7427615e-06   -796.11534            0   -796.11534    13995.127 
     687 4.220039e-06   -796.11535            0   -796.11535    13995.124 
     688 4.7237986e-06   -796.11535            0   -796.11535     13995.12 
     689 5.2535338e-06   -796.11535            0   -796.11535    13995.116 
     690 5.8087225e-06   -796.11535            0   -796.11535    13995.111 
     691 6.3888035e-06   -796.11536            0   -796.11536    13995.107 
     692 6.9932033e-06   -796.11536            0   -796.11536    13995.102 
     693 7.6213039e-06   -796.11536            0   -796.11536    13995.097 
     694 8.2724887e-06   -796.11536            0   -796.11536    13995.092 
     695 8.9460737e-06   -796.11537            0   -796.11537    13995.086 
     696 9.6414251e-06   -796.11537            0   -796.11537    13995.081 
     697 1.0357745e-05   -796.11537            0   -796.11537    13995.075 
     698 1.1094497e-05   -796.11538            0   -796.11538    13995.069 
     699 1.1850499e-05   -796.11538            0   -796.11538    13995.062 
     700 1.2625974e-05   -796.11538            0   -796.11538    13995.056 
     701 1.3417414e-05   -796.11539            0   -796.11539    13995.049 
     702 1.4229747e-05   -796.11539            0   -796.11539    13995.043 
     703 1.5033772e-05   -796.11539            0   -796.11539    13995.035 
     704 1.580466e-05    -796.1154            0    -796.1154    13995.031 
     705 1.561091e-05    -796.1154            0    -796.1154    13995.013 
     706 1.002868e-05    -796.1154            0    -796.1154    13995.031 
     707 8.6092402e-07    -796.1154            0    -796.1154     13995.02 
     708 9.4368114e-07   -796.11541            0   -796.11541    13995.014 
     709 1.0807105e-06   -796.11541            0   -796.11541    13995.012 
     710 1.3077695e-06   -796.11541            0   -796.11541     13995.01 
     711 1.5565784e-06   -796.11541            0   -796.11541    13995.008 
     712 1.826302e-06   -796.11541            0   -796.11541    13995.005 
     713 2.1166476e-06   -796.11541            0   -796.11541    13995.003 
     714 2.4273387e-06   -796.11541            0   -796.11541        13995 
     715 2.7580678e-06   -796.11541            0   -796.11541    13994.997 
     716 3.1085108e-06   -796.11542            0   -796.11542    13994.994 
     717  3.47832e-06   -796.11542            0   -796.11542    13994.991 
     718 3.8671294e-06   -796.11542            0   -796.11542    13994.988 
     719 4.2745511e-06   -796.11542            0   -796.11542    13994.984 
     720 4.7001795e-06   -796.11542            0   -796.11542     13994.98 
     721 5.1435869e-06   -796.11543            0   -796.11543    13994.976 
     722 5.6043306e-06   -796.11543            0   -796.11543    13994.972 
     723 6.0819436e-06   -796.11543            0   -796.11543    13994.968 
     724 6.5759499e-06   -796.11543            0   -796.11543    13994.963 
     725 7.0858402e-06   -796.11544            0   -796.11544    13994.959 
     726 7.6111181e-06   -796.11544            0   -796.11544    13994.954 
     727 8.1512073e-06   -796.11544            0   -796.11544    13994.949 
     728 8.705658e-06   -796.11544            0   -796.11544    13994.944 
     729 9.2736601e-06   -796.11545            0   -796.11545    13994.938 
     730 9.8552557e-06   -796.11545            0   -796.11545    13994.933 
     731 1.0448033e-05   -796.11545            0   -796.11545    13994.927 
     732 1.1055731e-05   -796.11546            0   -796.11546    13994.922 
     733 1.1655774e-05   -796.11546            0   -796.11546    13994.915 
     734 1.2228835e-05   -796.11546            0   -796.11546    13994.912 
     735 1.1889952e-05   -796.11547            0   -796.11547    13994.895 
     736 6.3653611e-06   -796.11547            0   -796.11547    13994.914 
     737 2.7550084e-07   -796.11547            0   -796.11547    13994.908 
     738 3.6048266e-07   -796.11547            0   -796.11547    13994.902 
     739 4.4337491e-07   -796.11547            0   -796.11547    13994.899 
     740 5.5264934e-07   -796.11547            0   -796.11547    13994.897 
     741 6.9039274e-07   -796.11547            0   -796.11547    13994.895 
     742 8.4508519e-07   -796.11547            0   -796.11547    13994.894 
     743 1.0148834e-06   -796.11547            0   -796.11547    13994.892 
     744 1.1997077e-06   -796.11548            0   -796.11548     13994.89 
     745 1.3993892e-06   -796.11548            0   -796.11548    13994.888 
     746 1.6137323e-06   -796.11548            0   -796.11548    13994.886 
     747 1.8425283e-06   -796.11548            0   -796.11548    13994.884 
     748 2.0855523e-06   -796.11548            0   -796.11548    13994.882 
     749 2.3425652e-06   -796.11548            0   -796.11548    13994.879 
     750 2.6133125e-06   -796.11548            0   -796.11548    13994.876 
     751 2.8975258e-06   -796.11549            0   -796.11549    13994.874 
     752 3.1949222e-06   -796.11549            0   -796.11549    13994.871 
     753 3.5052049e-06   -796.11549            0   -796.11549    13994.867 
     754 3.8280634e-06   -796.11549            0   -796.11549    13994.864 
     755 4.1631741e-06   -796.11549            0   -796.11549    13994.861 
     756 4.5101996e-06    -796.1155            0    -796.1155    13994.857 
     757 4.8687913e-06    -796.1155            0    -796.1155    13994.854 
     758 5.2385848e-06    -796.1155            0    -796.1155     13994.85 
     759 5.6192115e-06    -796.1155            0    -796.1155    13994.846 
     760 6.0102726e-06   -796.11551            0   -796.11551    13994.842 
     761 6.411402e-06   -796.11551            0   -796.11551    13994.837 
     762 6.8221105e-06   -796.11551            0   -796.11551    13994.833 
     763 7.2421991e-06   -796.11551            0   -796.11551    13994.829 
     764 7.6705841e-06   -796.11552            0   -796.11552    13994.824 
     765 8.1086267e-06   -796.11552            0   -796.11552    13994.819 
     766 8.5481079e-06   -796.11552            0   -796.11552    13994.814 
     767 8.9921743e-06   -796.11553            0   -796.11553    13994.811 
     768 9.155592e-06   -796.11553            0   -796.11553    13994.799 
     769 7.0883225e-06   -796.11553            0   -796.11553    13994.814 
     770 5.6633618e-07   -796.11553            0   -796.11553    13994.804 
     771 5.4585259e-07   -796.11553            0   -796.11553    13994.799 
     772 5.8381747e-07   -796.11553            0   -796.11553    13994.797 
     773 7.0306005e-07   -796.11554            0   -796.11554    13994.796 
     774 8.3290183e-07   -796.11554            0   -796.11554    13994.795 
     775 9.7337118e-07   -796.11554            0   -796.11554    13994.793 
     776 1.1242806e-06   -796.11554            0   -796.11554    13994.791 
     777 1.2855004e-06   -796.11554            0   -796.11554     13994.79 
     778 1.4568635e-06   -796.11554            0   -796.11554    13994.788 
     779 1.6382076e-06   -796.11554            0   -796.11554    13994.786 
     780 1.8293487e-06   -796.11554            0   -796.11554    13994.783 
     781 2.0301026e-06   -796.11554            0   -796.11554    13994.781 
     782 2.2402641e-06   -796.11555            0   -796.11555    13994.779 
     783 2.4596314e-06   -796.11555            0   -796.11555    13994.776 
     784 2.6879749e-06   -796.11555            0   -796.11555    13994.774 
     785 2.9250827e-06   -796.11555            0   -796.11555    13994.771 
     786 3.1706883e-06   -796.11555            0   -796.11555    13994.768 
     787 3.4245983e-06   -796.11556            0   -796.11556    13994.765 
     788 3.6864484e-06   -796.11556            0   -796.11556    13994.762 
     789 3.956206e-06   -796.11556            0   -796.11556    13994.759 
     790 4.2330426e-06   -796.11556            0   -796.11556    13994.755 
     791 4.5179273e-06   -796.11556            0   -796.11556    13994.752 
     792 4.8064476e-06   -796.11557            0   -796.11557    13994.748 
     793 5.1031301e-06   -796.11557            0   -796.11557    13994.746 
     794 5.3371659e-06   -796.11557            0   -796.11557    13994.739 
     795 5.2165094e-06   -796.11557            0   -796.11557    13994.744 
     796 2.6844557e-06   -796.11558            0   -796.11558    13994.727 
     797 2.4948391e-07   -796.11558            0   -796.11558    13994.731 
     798 2.8094876e-07   -796.11558            0   -796.11558    13994.734 
     799 3.2736205e-07   -796.11558            0   -796.11558    13994.733 
     800 4.0311076e-07   -796.11558            0   -796.11558    13994.733 
     801 4.8944743e-07   -796.11558            0   -796.11558    13994.731 
     802 5.8401573e-07   -796.11558            0   -796.11558     13994.73 
     803 6.8663723e-07   -796.11558            0   -796.11558    13994.729 
     804 7.9721922e-07   -796.11558            0   -796.11558    13994.728 
     805 9.1565245e-07   -796.11558            0   -796.11558    13994.726 
     806 1.0418222e-06   -796.11558            0   -796.11558    13994.725 
     807 1.1756043e-06   -796.11558            0   -796.11558    13994.723 
     808 1.3168676e-06   -796.11559            0   -796.11559    13994.721 
     809 1.4654721e-06   -796.11559            0   -796.11559    13994.719 
     810 1.6212713e-06   -796.11559            0   -796.11559    13994.717 
     811 1.7841098e-06   -796.11559            0   -796.11559    13994.715 
     812 1.9538264e-06   -796.11559            0   -796.11559    13994.713 
     813 2.1302504e-06   -796.11559            0   -796.11559    13994.711 
     814 2.3132074e-06   -796.11559            0   -796.11559    13994.708 
     815 2.5025103e-06    -796.1156            0    -796.1156    13994.706 
     816 2.6979767e-06    -796.1156            0    -796.1156    13994.703 
     817 2.8993933e-06    -796.1156            0    -796.1156    13994.701 
     818 3.1065949e-06    -796.1156            0    -796.1156    13994.698 
     819 3.3192792e-06    -796.1156            0    -796.1156    13994.695 
     820 3.5374681e-06   -796.11561            0   -796.11561    13994.692 
     821 3.7602486e-06   -796.11561            0   -796.11561    13994.689 
     822 3.989073e-06   -796.11561            0   -796.11561    13994.686 
     823 4.2154007e-06   -796.11561            0   -796.11561    13994.682 
     824 4.4330659e-06   -796.11562            0   -796.11562    13994.682 
     825 4.3119119e-06   -796.11562            0   -796.11562    13994.671 
     826 2.2636945e-06   -796.11562            0   -796.11562    13994.683 
     827 9.8579507e-08   -796.11562            0   -796.11562     13994.68 
     828 1.3001139e-07   -796.11562            0   -796.11562    13994.676 
     829 1.6069334e-07   -796.11562            0   -796.11562    13994.674 
     830 2.0163217e-07   -796.11562            0   -796.11562    13994.673 
     831 2.5394418e-07   -796.11562            0   -796.11562    13994.672 
     832 3.1303973e-07   -796.11562            0   -796.11562    13994.671 
     833 3.7812014e-07   -796.11562            0   -796.11562    13994.671 
     834 4.4915386e-07   -796.11562            0   -796.11562     13994.67 
     835 5.2607617e-07   -796.11562            0   -796.11562    13994.668 
     836 6.0881217e-07   -796.11562            0   -796.11562    13994.667 
     837 6.9728175e-07   -796.11563            0   -796.11563    13994.666 
     838 7.913985e-07   -796.11563            0   -796.11563    13994.665 
     839 8.9107034e-07   -796.11563            0   -796.11563    13994.663 
     840 9.9619922e-07   -796.11563            0   -796.11563    13994.662 
     841 1.1066816e-06   -796.11563            0   -796.11563     13994.66 
     842 1.222408e-06   -796.11563            0   -796.11563    13994.659 
     843 1.3432639e-06   -796.11563            0   -796.11563    13994.657 
     844 1.469129e-06   -796.11563            0   -796.11563    13994.655 
     845 1.5998781e-06   -796.11564            0   -796.11564    13994.653 
     846 1.7353802e-06   -796.11564            0   -796.11564    13994.651 
     847 1.8755008e-06   -796.11564            0   -796.11564    13994.649 
     848 2.0200974e-06   -796.11564            0   -796.11564    13994.647 
     849 2.1690294e-06   -796.11564            0   -796.11564    13994.645 
     850 2.3221359e-06   -796.11564            0   -796.11564    13994.643 
     851 2.4792909e-06   -796.11565            0   -796.11565     13994.64 
     852 2.6402596e-06   -796.11565            0   -796.11565    13994.638 
     853 2.8050908e-06   -796.11565            0   -796.11565    13994.635 
     854 2.9729297e-06   -796.11565            0   -796.11565    13994.633 
     855 3.145267e-06   -796.11565            0   -796.11565     13994.63 
     856 3.3106532e-06   -796.11566            0   -796.11566    13994.626 
     857 3.4391472e-06   -796.11566            0   -796.11566    13994.627 
     858 2.8712279e-06   -796.11566            0   -796.11566    13994.614 
     859 4.3703832e-07   -796.11566            0   -796.11566    13994.621 
     860 2.3704153e-07   -796.11566            0   -796.11566    13994.621 
     861 2.851011e-07   -796.11566            0   -796.11566     13994.62 
     862 3.3786792e-07   -796.11566            0   -796.11566    13994.619 
     863 3.9490576e-07   -796.11566            0   -796.11566    13994.618 
     864 4.5620907e-07   -796.11566            0   -796.11566    13994.617 
     865 5.2169576e-07   -796.11566            0   -796.11566    13994.616 
     866 5.913154e-07   -796.11567            0   -796.11567    13994.615 
     867 6.6498971e-07   -796.11567            0   -796.11567    13994.614 
     868 7.426558e-07   -796.11567            0   -796.11567    13994.613 
     869 8.242271e-07   -796.11567            0   -796.11567    13994.612 
     870 9.0963557e-07   -796.11567            0   -796.11567     13994.61 
     871 9.9877943e-07   -796.11567            0   -796.11567    13994.609 
     872 1.0915967e-06   -796.11567            0   -796.11567    13994.607 
     873 1.1879504e-06   -796.11567            0   -796.11567    13994.606 
     874 1.2878257e-06   -796.11567            0   -796.11567    13994.604 
     875 1.390958e-06   -796.11568            0   -796.11568    13994.602 
     876 1.4975786e-06   -796.11568            0   -796.11568      13994.6 
     877 1.6067129e-06   -796.11568            0   -796.11568    13994.599 
     878 1.7197489e-06   -796.11568            0   -796.11568    13994.597 
     879 1.828386e-06   -796.11568            0   -796.11568    13994.594 
     880 1.9223287e-06   -796.11568            0   -796.11568    13994.594 
     881 1.7843953e-06   -796.11568            0   -796.11568    13994.586 
     882 8.313922e-07   -796.11569            0   -796.11569    13994.594 
     883 1.2868766e-07   -796.11569            0   -796.11569    13994.591 
     884 1.345681e-07   -796.11569            0   -796.11569    13994.589 
     885 1.6362956e-07   -796.11569            0   -796.11569    13994.588 
     886 1.9952187e-07   -796.11569            0   -796.11569    13994.588 
     887 2.3883904e-07   -796.11569            0   -796.11569    13994.587 
     888 2.8157864e-07   -796.11569            0   -796.11569    13994.586 
     889 3.2769247e-07   -796.11569            0   -796.11569    13994.586 
     890 3.7713829e-07   -796.11569            0   -796.11569    13994.585 
     891 4.2986704e-07   -796.11569            0   -796.11569    13994.584 
     892 4.8582816e-07   -796.11569            0   -796.11569    13994.583 
     893 5.4496632e-07   -796.11569            0   -796.11569    13994.582 
     894 6.072242e-07   -796.11569            0   -796.11569    13994.581 
     895 6.7253984e-07   -796.11569            0   -796.11569     13994.58 
     896 7.4084983e-07    -796.1157            0    -796.1157    13994.578 
     897 8.1208527e-07    -796.1157            0    -796.1157    13994.577 
     898 8.8617786e-07    -796.1157            0    -796.1157    13994.576 
     899 9.6305011e-07    -796.1157            0    -796.1157    13994.574 
     900 1.0426332e-06    -796.1157            0    -796.1157    13994.573 
     901 1.1248321e-06    -796.1157            0    -796.1157    13994.571 
     902 1.2095996e-06    -796.1157            0    -796.1157     13994.57 
     903 1.2967669e-06    -796.1157            0    -796.1157    13994.568 
     904 1.3864506e-06   -796.11571            0   -796.11571    13994.567 
     905 1.4779455e-06   -796.11571            0   -796.11571    13994.565 
     906 1.5723626e-06   -796.11571            0   -796.11571    13994.563 
     907 1.6610359e-06   -796.11571            0   -796.11571     13994.56 
     908 1.7220164e-06   -796.11571            0   -796.11571    13994.562 
     909 1.3928011e-06   -796.11571            0   -796.11571    13994.552 
     910 2.4528736e-07   -796.11571            0   -796.11571    13994.557 
     911 1.3811078e-07   -796.11571            0   -796.11571    13994.557 
     912 1.6688565e-07   -796.11571            0   -796.11571    13994.556 
     913 1.982924e-07   -796.11571            0   -796.11571    13994.556 
     914 2.3230877e-07   -796.11571            0   -796.11571    13994.555 
     915 2.6890025e-07   -796.11572            0   -796.11572    13994.554 
     916 3.0803234e-07   -796.11572            0   -796.11572    13994.554 
     917 3.4966663e-07   -796.11572            0   -796.11572    13994.553 
     918 3.9376299e-07   -796.11572            0   -796.11572    13994.552 
     919 4.4027802e-07   -796.11572            0   -796.11572    13994.551 
     920 4.8916656e-07   -796.11572            0   -796.11572     13994.55 
     921 5.4038015e-07   -796.11572            0   -796.11572    13994.549 
     922  5.93869e-07   -796.11572            0   -796.11572    13994.548 
     923 6.4957937e-07   -796.11572            0   -796.11572    13994.547 
     924 7.0745785e-07   -796.11572            0   -796.11572    13994.546 
     925 7.6744403e-07   -796.11572            0   -796.11572    13994.544 
     926 8.2948461e-07   -796.11573            0   -796.11573    13994.543 
     927 8.9350443e-07   -796.11573            0   -796.11573    13994.542 
     928 9.5947089e-07   -796.11573            0   -796.11573    13994.541 
     929  1.02724e-06   -796.11573            0   -796.11573    13994.539 
     930 1.0969411e-06   -796.11573            0   -796.11573    13994.538 
     931 1.1678837e-06   -796.11573            0   -796.11573    13994.536 
     932 1.2412147e-06   -796.11573            0   -796.11573    13994.535 
     933 1.3071617e-06   -796.11573            0   -796.11573    13994.532 
     934 1.3353391e-06   -796.11574            0   -796.11574    13994.534 
     935 9.0387751e-07   -796.11574            0   -796.11574    13994.525 
     936 6.8126468e-08   -796.11574            0   -796.11574    13994.528 
     937 7.2249279e-08   -796.11574            0   -796.11574    13994.529 
     938 7.6944896e-08   -796.11574            0   -796.11574    13994.529 
     939 9.4425112e-08   -796.11574            0   -796.11574    13994.529 
     940 1.151867e-07   -796.11574            0   -796.11574    13994.529 
     941 1.3798359e-07   -796.11574            0   -796.11574    13994.528 
     942 1.6276714e-07   -796.11574            0   -796.11574    13994.528 
     943 1.8951655e-07   -796.11574            0   -796.11574    13994.527 
     944 2.1820516e-07   -796.11574            0   -796.11574    13994.526 
     945 2.4880581e-07   -796.11574            0   -796.11574    13994.526 
     946 2.8128852e-07   -796.11574            0   -796.11574    13994.525 
     947 3.1562203e-07   -796.11574            0   -796.11574    13994.524 
     948 3.5177253e-07   -796.11574            0   -796.11574    13994.523 
     949 3.8970507e-07   -796.11574            0   -796.11574    13994.523 
     950 4.2938194e-07   -796.11574            0   -796.11574    13994.522 
     951 4.7076494e-07   -796.11574            0   -796.11574    13994.521 
     952 5.1381203e-07   -796.11575            0   -796.11575     13994.52 
     953 5.5848308e-07   -796.11575            0   -796.11575    13994.519 
     954 6.0472936e-07   -796.11575            0   -796.11575    13994.518 
     955 6.5251476e-07   -796.11575            0   -796.11575    13994.517 
     956 7.0176986e-07   -796.11575            0   -796.11575    13994.516 
     957 7.5249836e-07   -796.11575            0   -796.11575    13994.514 
     958 8.0450838e-07   -796.11575            0   -796.11575    13994.513 
     959 8.5809267e-07   -796.11575            0   -796.11575    13994.512 
     960 9.118353e-07   -796.11575            0   -796.11575     13994.51 
     961 9.6646381e-07   -796.11576            0   -796.11576     13994.51 
     962 9.8551831e-07   -796.11576            0   -796.11576    13994.506 
     963 7.7042118e-07   -796.11576            0   -796.11576    13994.512 
     964 8.7221256e-08   -796.11576            0   -796.11576    13994.508 
     965 7.2283621e-08   -796.11576            0   -796.11576    13994.506 
     966 8.1112333e-08   -796.11576            0   -796.11576    13994.506 
     967 9.7893354e-08   -796.11576            0   -796.11576    13994.506 
     968 1.1623288e-07   -796.11576            0   -796.11576    13994.505 
     969 1.3608358e-07   -796.11576            0   -796.11576    13994.505 
     970 1.5743303e-07   -796.11576            0   -796.11576    13994.504 
     971 1.8025765e-07   -796.11576            0   -796.11576    13994.504 
     972 2.0453739e-07   -796.11576            0   -796.11576    13994.503 
     973 2.3024718e-07   -796.11576            0   -796.11576    13994.502 
     974 2.5736359e-07   -796.11576            0   -796.11576    13994.502 
     975 2.8585845e-07   -796.11576            0   -796.11576    13994.501 
     976 3.1570622e-07   -796.11576            0   -796.11576      13994.5 
     977 3.4687441e-07   -796.11576            0   -796.11576    13994.499 
     978 3.7933766e-07   -796.11577            0   -796.11577    13994.499 
     979 4.1305488e-07   -796.11577            0   -796.11577    13994.498 
     980 4.4801032e-07   -796.11577            0   -796.11577    13994.497 
     981 4.8413303e-07   -796.11577            0   -796.11577    13994.496 
     982 5.2146565e-07   -796.11577            0   -796.11577    13994.495 
     983 5.597701e-07   -796.11577            0   -796.11577    13994.494 
     984 5.9941903e-07   -796.11577            0   -796.11577    13994.493 
     985 6.3854405e-07   -796.11577            0   -796.11577    13994.492 
     986 6.764237e-07   -796.11577            0   -796.11577    13994.492 
     987 6.6523702e-07   -796.11577            0   -796.11577    13994.487 
     988 4.1140046e-07   -796.11577            0   -796.11577    13994.492 
     989 4.2928857e-08   -796.11577            0   -796.11577     13994.49 
     990 4.3798184e-08   -796.11577            0   -796.11577    13994.489 
     991 5.0625299e-08   -796.11578            0   -796.11578    13994.488 
     992 6.2434607e-08   -796.11578            0   -796.11578    13994.488 
     993 7.5515384e-08   -796.11578            0   -796.11578    13994.488 
     994 8.9803998e-08   -796.11578            0   -796.11578    13994.487 
     995 1.0528542e-07   -796.11578            0   -796.11578    13994.487 
     996 1.2194528e-07   -796.11578            0   -796.11578    13994.486 
     997 1.3976747e-07   -796.11578            0   -796.11578    13994.486 
     998 1.5873495e-07   -796.11578            0   -796.11578    13994.485 
     999 1.7882935e-07   -796.11578            0   -796.11578    13994.485 
    1000 2.0003128e-07   -796.11578            0   -796.11578    13994.484 
    1001 2.2232007e-07   -796.11578            0   -796.11578    13994.484 
    1002 2.4567413e-07   -796.11578            0   -796.11578    13994.483 
    1003 2.7007049e-07   -796.11578            0   -796.11578    13994.482 
    1004 2.9548558e-07   -796.11578            0   -796.11578    13994.482 
    1005  3.21894e-07   -796.11578            0   -796.11578    13994.481 
    1006 3.4927076e-07   -796.11578            0   -796.11578     13994.48 
    1007 3.7758701e-07   -796.11578            0   -796.11578    13994.479 
    1008 4.0681915e-07   -796.11578            0   -796.11578    13994.479 
    1009 4.369281e-07   -796.11579            0   -796.11579    13994.478 
    1010 4.6790977e-07   -796.11579            0   -796.11579    13994.477 
    1011 4.9966158e-07   -796.11579            0   -796.11579    13994.476 
    1012 5.3233478e-07   -796.11579            0   -796.11579    13994.475 
    1013 5.6513579e-07   -796.11579            0   -796.11579    13994.474 
    1014 5.9834846e-07   -796.11579            0   -796.11579    13994.473 
    1015 6.0825036e-07   -796.11579            0   -796.11579     13994.47 
    1016 4.5512768e-07   -796.11579            0   -796.11579    13994.475 
    1017 3.7111547e-08   -796.11579            0   -796.11579    13994.472 
[...]
    2250 4.4988742e-05   -796.08848            0   -796.08848    14131.331 
    2251 4.7685115e-05   -796.08848            0   -796.08848    14131.388 
    2252 5.041616e-05   -796.08848            0   -796.08848    14131.445 
    2253 5.3075528e-05   -796.08848            0   -796.08848    14131.505 
    2254 5.4504529e-05   -796.08848            0   -796.08848    14131.565 
    2255 4.2939516e-05   -796.08848            0   -796.08848    14131.618 
    2256 4.7976312e-06   -796.08848            0   -796.08848    14131.634 
    2257 2.5112394e-06   -796.08848            0   -796.08848    14131.646 
    2258 3.1246345e-06   -796.08848            0   -796.08848     14131.66 
    2259 3.7597354e-06   -796.08848            0   -796.08848    14131.675 
    2260 4.4510409e-06   -796.08848            0   -796.08848    14131.691 
    2261 5.1975222e-06   -796.08848            0   -796.08848    14131.709 
    2262 5.9981542e-06   -796.08848            0   -796.08848    14131.728 
    2263 6.8518347e-06   -796.08848            0   -796.08848    14131.749 
    2264 7.757382e-06   -796.08848            0   -796.08848    14131.771 
    2265 8.7135372e-06   -796.08848            0   -796.08848    14131.794 
    2266 9.7189661e-06   -796.08848            0   -796.08848    14131.819 
    2267 1.077226e-05   -796.08848            0   -796.08848    14131.845 
    2268 1.1871939e-05   -796.08848            0   -796.08848    14131.872 
    2269 1.3016452e-05   -796.08848            0   -796.08848    14131.901 
    2270 1.4204179e-05   -796.08848            0   -796.08848    14131.931 
    2271 1.5433436e-05   -796.08848            0   -796.08848    14131.963 
    2272 1.6702472e-05   -796.08848            0   -796.08848    14131.996 
    2273 1.8009478e-05   -796.08848            0   -796.08848     14132.03 
    2274 1.9352579e-05   -796.08848            0   -796.08848    14132.065 
    2275 2.072985e-05   -796.08848            0   -796.08848    14132.102 
    2276 2.2139303e-05   -796.08848            0   -796.08848     14132.14 
    2277 2.3578903e-05   -796.08848            0   -796.08848    14132.179 
    2278 2.5046506e-05   -796.08848            0   -796.08848    14132.219 
    2279 2.6539745e-05   -796.08848            0   -796.08848    14132.261 
    2280 2.8053631e-05   -796.08848            0   -796.08848    14132.304 
    2281 2.9560208e-05   -796.08848            0   -796.08848    14132.348 
    2282 3.0764533e-05   -796.08848            0   -796.08848    14132.393 
    2283 2.8446877e-05   -796.08848            0   -796.08848    14132.436 
    2284 8.7941188e-06   -796.08848            0   -796.08848     14132.46 
    2285 2.2418381e-07   -796.08848            0   -796.08848    14132.462 
    2286 4.0304723e-07   -796.08848            0   -796.08848    14132.467 
    2287 6.635047e-07   -796.08848            0   -796.08848    14132.472 
    2288 9.4044388e-07   -796.08848            0   -796.08848     14132.48 
    2289 1.2156154e-06   -796.08848            0   -796.08848    14132.488 
    2290 1.5137878e-06   -796.08848            0   -796.08848    14132.497 
    2291 1.8427488e-06   -796.08848            0   -796.08848    14132.507 
    2292 2.2027104e-06   -796.08848            0   -796.08848    14132.519 
    2293 2.5931761e-06   -796.08848            0   -796.08848    14132.531 
    2294 3.0135963e-06   -796.08848            0   -796.08848    14132.545 
    2295 3.463376e-06   -796.08848            0   -796.08848    14132.559 
    2296 3.9418752e-06   -796.08848            0   -796.08848    14132.575 
    2297  4.44841e-06   -796.08849            0   -796.08848    14132.591 
    2298 4.9822533e-06   -796.08849            0   -796.08848    14132.609 
    2299 5.5426355e-06   -796.08849            0   -796.08848    14132.627 
    2300 6.1287459e-06   -796.08849            0   -796.08848    14132.647 
    2301 6.7397338e-06   -796.08849            0   -796.08848    14132.667 
    2302 7.374709e-06   -796.08849            0   -796.08848    14132.689 
    2303 8.0327436e-06   -796.08849            0   -796.08848    14132.712 
    2304 8.7128729e-06   -796.08849            0   -796.08848    14132.735 
    2305 9.4140967e-06   -796.08849            0   -796.08848     14132.76 
    2306 1.013538e-05   -796.08849            0   -796.08848    14132.785 
    2307 1.0875657e-05   -796.08849            0   -796.08848    14132.812 
    2308 1.1633827e-05   -796.08849            0   -796.08848    14132.839 
    2309 1.2408761e-05   -796.08849            0   -796.08848    14132.867 
    2310 1.3199302e-05   -796.08849            0   -796.08848    14132.896 
    2311 1.4004266e-05   -796.08849            0   -796.08848    14132.926 
    2312 1.4822436e-05   -796.08849            0   -796.08848    14132.957 
    2313 1.5652585e-05   -796.08849            0   -796.08848    14132.989 
    2314 1.6493366e-05   -796.08849            0   -796.08848    14133.022 
    2315 1.7343064e-05   -796.08849            0   -796.08848    14133.056 
    2316 1.8193018e-05   -796.08849            0   -796.08848     14133.09 
    2317 1.8948366e-05   -796.08849            0   -796.08848    14133.125 
    2318 1.8247322e-05   -796.08849            0   -796.08848     14133.16 
    2319 6.7706601e-06   -796.08849            0   -796.08849     14133.18 
    2320 2.7063531e-08   -796.08849            0   -796.08849     14133.18 
    2321 5.2483973e-08   -796.08849            0   -796.08849    14133.182 
    2322 9.6619686e-08   -796.08849            0   -796.08849    14133.184 
    2323 1.7317197e-07   -796.08849            0   -796.08849    14133.186 
    2324 2.8903488e-07   -796.08849            0   -796.08849     14133.19 
    2325  4.22333e-07   -796.08849            0   -796.08849    14133.195 
    2326 5.5686751e-07   -796.08849            0   -796.08849      14133.2 
    2327 7.0111546e-07   -796.08849            0   -796.08849    14133.207 
    2328 8.6041452e-07   -796.08849            0   -796.08849    14133.214 
    2329 1.0353404e-06   -796.08849            0   -796.08849    14133.221 
    2330 1.2256772e-06   -796.08849            0   -796.08849     14133.23 
    2331 1.4311517e-06   -796.08849            0   -796.08849    14133.239 
    2332 1.651466e-06   -796.08849            0   -796.08849    14133.249 
    2333 1.886299e-06   -796.08849            0   -796.08849     14133.26 
    2334 2.1353067e-06   -796.08849            0   -796.08849    14133.271 
    2335 2.3981228e-06   -796.08849            0   -796.08849    14133.283 
    2336 2.6743591e-06   -796.08849            0   -796.08849    14133.296 
    2337 2.9636059e-06   -796.08849            0   -796.08849     14133.31 
    2338 3.2654328e-06   -796.08849            0   -796.08849    14133.324 
    2339 3.579389e-06   -796.08849            0   -796.08849    14133.339 
    2340 3.9050044e-06   -796.08849            0   -796.08849    14133.354 
    2341 4.2417894e-06   -796.08849            0   -796.08849    14133.371 
    2342 4.5892365e-06   -796.08849            0   -796.08849    14133.388 
    2343 4.9468201e-06   -796.08849            0   -796.08849    14133.405 
    2344 5.3139981e-06   -796.08849            0   -796.08849    14133.424 
    2345 5.6902116e-06   -796.08849            0   -796.08849    14133.443 
    2346 6.0748866e-06   -796.08849            0   -796.08849    14133.462 
    2347 6.4674343e-06   -796.08849            0   -796.08849    14133.483 
    2348 6.8672516e-06   -796.08849            0   -796.08849    14133.504 
    2349 7.2737227e-06   -796.08849            0   -796.08849    14133.525 
    2350 7.6862187e-06   -796.08849            0   -796.08849    14133.547 
    2351 8.1041014e-06   -796.08849            0   -796.08849     14133.57 
    2352 8.5267131e-06   -796.08849            0   -796.08849    14133.594 
    2353 8.9534183e-06   -796.08849            0   -796.08849    14133.618 
    2354 9.3834425e-06   -796.08849            0   -796.08849    14133.642 
    2355 9.8163695e-06   -796.08849            0   -796.08849    14133.667 
    2356 1.0248293e-05   -796.08849            0   -796.08849    14133.693 
    2357 1.0654998e-05   -796.08849            0   -796.08849    14133.719 
    2358 1.0469827e-05   -796.08849            0   -796.08849    14133.748 
    2359 4.4616854e-06   -796.08849            0   -796.08849    14133.755 
    2360 3.7588498e-09   -796.08849            0   -796.08849    14133.755 
    2361 1.0042842e-08   -796.08849            0   -796.08849    14133.756 
    2362 2.0634252e-08   -796.08849            0   -796.08849    14133.757 
    2363 3.7496986e-08   -796.08849            0   -796.08849    14133.759 
    2364 6.4824888e-08   -796.08849            0   -796.08849    14133.762 
    2365 1.0887935e-07   -796.08849            0   -796.08849    14133.765 
    2366 1.6892766e-07   -796.08849            0   -796.08849    14133.769 
    2367 2.3155815e-07   -796.08849            0   -796.08849    14133.773 
    2368 2.956062e-07   -796.08849            0   -796.08849    14133.777 
    2369 3.6580359e-07   -796.08849            0   -796.08849    14133.782 
    2370 4.4311125e-07   -796.08849            0   -796.08849    14133.787 
    2371 5.2747747e-07   -796.08849            0   -796.08849    14133.792 
    2372 6.187892e-07   -796.08849            0   -796.08849    14133.798 
    2373 7.1691284e-07   -796.08849            0   -796.08849    14133.805 
    2374 8.2170229e-07   -796.08849            0   -796.08849    14133.812 
    2375 9.3300106e-07   -796.08849            0   -796.08849    14133.819 
    2376 1.0506422e-06   -796.08849            0   -796.08849    14133.827 
    2377 1.1744484e-06   -796.08849            0   -796.08849    14133.836 
    2378 1.3042325e-06   -796.08849            0   -796.08849    14133.844 
    2379 1.4397975e-06   -796.08849            0   -796.08849    14133.854 
    2380 1.5809371e-06   -796.08849            0   -796.08849    14133.864 
    2381 1.7274356e-06   -796.08849            0   -796.08849    14133.874 
    2382 1.8790686e-06   -796.08849            0   -796.08849    14133.885 
    2383 2.0356032e-06   -796.08849            0   -796.08849    14133.896 
    2384 2.196798e-06   -796.08849            0   -796.08849    14133.908 
    2385 2.362404e-06   -796.08849            0   -796.08849     14133.92 
    2386 2.5321644e-06   -796.08849            0   -796.08849    14133.933 
    2387 2.7058156e-06   -796.08849            0   -796.08849    14133.946 
    2388 2.8830864e-06   -796.08849            0   -796.08849    14133.959 
    2389 3.0637006e-06   -796.08849            0   -796.08849    14133.973 
    2390 3.2473729e-06   -796.08849            0   -796.08849    14133.987 
    2391  3.43382e-06   -796.08849            0   -796.08849    14134.002 
    2392 3.6227317e-06   -796.08849            0   -796.08849    14134.017 
    2393 3.8138522e-06   -796.08849            0   -796.08849    14134.033 
    2394 4.0066921e-06   -796.08849            0   -796.08849    14134.049 
    2395 4.2009933e-06   -796.08849            0   -796.08849    14134.065 
    2396 4.3888795e-06   -796.08849            0   -796.08849    14134.082 
    2397 4.4936946e-06   -796.08849            0   -796.08849    14134.098 
    2398 3.4695546e-06   -796.08849            0   -796.08849    14134.116 
    2399 2.5132177e-07   -796.08849            0   -796.08849    14134.117 
    2400 2.3678973e-07   -796.08849            0   -796.08849    14134.121 
    2401 2.8107643e-07   -796.08849            0   -796.08849    14134.125 
    2402 3.2905695e-07   -796.08849            0   -796.08849    14134.129 
    2403 3.8057762e-07   -796.08849            0   -796.08849    14134.134 
    2404 4.3554329e-07   -796.08849            0   -796.08849    14134.139 
    2405 4.9387499e-07   -796.08849            0   -796.08849    14134.145 
    2406 5.5548207e-07   -796.08849            0   -796.08849     14134.15 
    2407 6.2027169e-07   -796.08849            0   -796.08849    14134.157 
    2408 6.8814374e-07   -796.08849            0   -796.08849    14134.163 
    2409 7.5899471e-07   -796.08849            0   -796.08849     14134.17 
    2410 8.3271456e-07   -796.08849            0   -796.08849    14134.177 
    2411 9.0919024e-07   -796.08849            0   -796.08849    14134.184 
    2412 9.8830194e-07   -796.08849            0   -796.08849    14134.192 
    2413 1.0699284e-06   -796.08849            0   -796.08849      14134.2 
    2414 1.1539395e-06   -796.08849            0   -796.08849    14134.209 
    2415 1.2402087e-06   -796.08849            0   -796.08849    14134.218 
    2416 1.3285913e-06   -796.08849            0   -796.08849    14134.227 
    2417 1.4189659e-06   -796.08849            0   -796.08849    14134.236 
    2418 1.5111418e-06   -796.08849            0   -796.08849    14134.246 
    2419 1.6050282e-06   -796.08849            0   -796.08849    14134.256 
    2420 1.699949e-06   -796.08849            0   -796.08849    14134.266 
    2421 1.7942454e-06   -796.08849            0   -796.08849    14134.277 
    2422 1.8679264e-06   -796.08849            0   -796.08849    14134.288 
    2423 1.7730826e-06   -796.08849            0   -796.08849    14134.298 
    2424 8.2548138e-07   -796.08849            0   -796.08849    14134.306 
    2425 5.7986286e-08   -796.08849            0   -796.08849    14134.307 
    2426 9.7587706e-08   -796.08849            0   -796.08849    14134.309 
    2427 1.2271864e-07   -796.08849            0   -796.08849    14134.312 
    2428 1.476981e-07   -796.08849            0   -796.08849    14134.315 
    2429 1.7491151e-07   -796.08849            0   -796.08849    14134.318 
    2430 2.0428983e-07   -796.08849            0   -796.08849    14134.321 
    2431 2.3578746e-07   -796.08849            0   -796.08849    14134.325 
    2432 2.6935674e-07   -796.08849            0   -796.08849    14134.329 
    2433 3.0494639e-07   -796.08849            0   -796.08849    14134.333 
    2434 3.4250193e-07   -796.08849            0   -796.08849    14134.338 
    2435 3.8196557e-07   -796.08849            0   -796.08849    14134.343 
    2436 4.2327643e-07   -796.08849            0   -796.08849    14134.348 
    2437 4.6637054e-07   -796.08849            0   -796.08849    14134.353 
    2438 5.1118098e-07   -796.08849            0   -796.08849    14134.359 
    2439 5.5763796e-07   -796.08849            0   -796.08849    14134.364 
    2440 6.0566894e-07   -796.08849            0   -796.08849    14134.371 
    2441 6.5519868e-07   -796.08849            0   -796.08849    14134.377 
    2442 7.0614946e-07   -796.08849            0   -796.08849    14134.384 
    2443 7.5844102e-07   -796.08849            0   -796.08849     14134.39 
    2444 8.1199099e-07   -796.08849            0   -796.08849    14134.397 
    2445 8.6671436e-07   -796.08849            0   -796.08849    14134.405 
    2446 9.2252506e-07   -796.08849            0   -796.08849    14134.412 
    2447 9.7933266e-07   -796.08849            0   -796.08849     14134.42 
    2448 1.0370508e-06   -796.08849            0   -796.08849    14134.428 
    2449 1.0955746e-06   -796.08849            0   -796.08849    14134.437 
    2450 1.1548338e-06   -796.08849            0   -796.08849    14134.445 
    2451 1.2145447e-06   -796.08849            0   -796.08849    14134.454 
    2452 1.2739794e-06   -796.08849            0   -796.08849    14134.463 
    2453 1.3208765e-06   -796.08849            0   -796.08849    14134.472 
    2454 1.2283216e-06   -796.08849            0   -796.08849     14134.48 
    2455 3.8285306e-07   -796.08849            0   -796.08849    14134.486 
    2456 7.0861208e-09   -796.08849            0   -796.08849    14134.487 
    2457 1.2604581e-08   -796.08849            0   -796.08849    14134.487 
    2458 2.1206961e-08   -796.08849            0   -796.08849    14134.488 
    2459 3.1559709e-08   -796.08849            0   -796.08849    14134.489 
    2460 4.1980465e-08   -796.08849            0   -796.08849    14134.491 
    2461 5.2990242e-08   -796.08849            0   -796.08849    14134.492 
    2462 6.5123773e-08   -796.08849            0   -796.08849    14134.494 
    2463 7.8456561e-08   -796.08849            0   -796.08849    14134.496 
    2464 9.297047e-08   -796.08849            0   -796.08849    14134.498 
    2465 1.0864268e-07   -796.08849            0   -796.08849    14134.501 
    2466 1.254493e-07   -796.08849            0   -796.08849    14134.504 
    2467 1.4336466e-07   -796.08849            0   -796.08849    14134.507 
    2468 1.6236123e-07   -796.08849            0   -796.08849     14134.51 
    2469 1.8240973e-07   -796.08849            0   -796.08849    14134.513 
    2470 2.0347912e-07   -796.08849            0   -796.08849    14134.516 
    2471 2.2553669e-07   -796.08849            0   -796.08849     14134.52 
    2472 2.4854807e-07   -796.08849            0   -796.08849    14134.524 
    2473 2.7247731e-07   -796.08849            0   -796.08849    14134.528 
    2474 2.9728691e-07   -796.08849            0   -796.08849    14134.532 
    2475 3.2293789e-07   -796.08849            0   -796.08849    14134.537 
    2476 3.4938987e-07   -796.08849            0   -796.08849    14134.541 
    2477 3.7660107e-07   -796.08849            0   -796.08849    14134.546 
    2478 4.0452843e-07   -796.08849            0   -796.08849    14134.551 
    2479 4.3312766e-07   -796.08849            0   -796.08849    14134.556 
    2480 4.6235329e-07   -796.08849            0   -796.08849    14134.562 
    2481 4.9215873e-07   -796.08849            0   -796.08849    14134.567 
    2482 5.2249639e-07   -796.08849            0   -796.08849    14134.573 
    2483 5.5331772e-07   -796.08849            0   -796.08849    14134.579 
    2484 5.8457316e-07   -796.08849            0   -796.08849    14134.585 
    2485 6.1621275e-07   -796.08849            0   -796.08849    14134.591 
    2486 6.481843e-07   -796.08849            0   -796.08849    14134.597 
    2487 6.8043786e-07   -796.08849            0   -796.08849    14134.604 
    2488 7.1289096e-07   -796.08849            0   -796.08849    14134.611 
    2489 7.4528785e-07   -796.08849            0   -796.08849    14134.618 
    2490 7.7395482e-07   -796.08849            0   -796.08849    14134.625 
    2491 7.4789732e-07   -796.08849            0   -796.08849    14134.631 
    2492 2.8550181e-07   -796.08849            0   -796.08849    14134.636 
    2493 8.2847201e-10   -796.08849            0   -796.08849    14134.636 
Loop time of 357.296 on 16 procs for 653 steps with 127 atoms

86.7% CPU use with 16 MPI tasks x no OpenMP threads

Minimization stats:
  Stopping criterion = energy tolerance
  Energy initial, next-to-last, final = 
        -796.115911013     -796.088485484     -796.088485484
  Force two-norm initial, final = 0.243047 9.31321e-05
  Force max component initial, final = 0.234366 6.25812e-05
  Final line search alpha, max atom move = 0 0
  Iterations, force evaluations = 653 653

MPI task timing breakdown:
Section |  min time  |  avg time  |  max time  |%varavg| %total
---------------------------------------------------------------
Pair    | 166.13     | 210.33     | 348.73     | 477.4 | 58.87
Neigh   | 0          | 0          | 0          |   0.0 |  0.00
Comm    | 5.5692     | 142.21     | 185.52     | 575.8 | 39.80
Output  | 0.12005    | 0.1232     | 0.12489    |   0.3 |  0.03
Modify  | 0.72137    | 2.4786     | 3.4222     |  60.3 |  0.69
Other   |            | 2.151      |            |       |  0.60

Nlocal:    7.9375 ave 8 max 7 min
Histogram: 1 0 0 0 0 0 0 0 0 15
Nghost:    821.562 ave 828 max 816 min
Histogram: 4 0 0 4 0 2 2 0 2 2
Neighs:    0 ave 0 max 0 min
Histogram: 16 0 0 0 0 0 0 0 0 0
FullNghs:  1599.88 ave 1619 max 1415 min
Histogram: 1 0 0 0 0 0 0 0 0 15

Total # of neighbors = 25598
Ave neighs/atom = 201.559
Neighbor list builds = 0
Dangerous builds = 0
Total wall time: 0:22:55
