LAMMPS (12 Dec 2018)
Processor partition = 6
Reading data file ...
  orthogonal box = (0 0 0) to (10.0025 12.3537 10.615)
  2 by 4 by 2 MPI processor grid
  reading atoms ...
  127 atoms
Reading potential file lammps-force.nnp with DATE: 20201105
Neighbor list info ...
  update every 1 steps, delay 0 steps, check yes
  max neighbors/atom: 2000, page size: 100000
  master list distance cutoff = 8
  ghost atom cutoff = 8
  binsize = 4, bins = 3 4 3
  1 neighbor lists, perpetual/occasional/extra = 1 0 0
  (1) pair nnp3v, perpetual
      attributes: full, newton on
      pair build: full/bin/atomonly
      stencil: full/bin/3d
      bin: standard
Setting up quickmin style minimization ...
  Unit style    : metal
  Current step  : 0
Per MPI rank memory allocation (min/avg/max) = 2.736 | 2.736 | 2.736 Mbytes
Step Temp E_pair E_mol TotEng Press 
       0            0   -796.68047            0   -796.68047     13401.66 
       6  0.092325754   -796.68154            0   -796.68004    13408.421 
Loop time of 3.77346 on 16 procs for 6 steps with 127 atoms

86.7% CPU use with 16 MPI tasks x no OpenMP threads

Minimization stats:
  Stopping criterion = energy tolerance
  Energy initial, next-to-last, final = 
        -796.680469343     -796.681189813     -796.681544239
  Force two-norm initial, final = 0.292034 0.283352
  Force max component initial, final = 0.0445202 0.0435203
  Final line search alpha, max atom move = 0 0
  Iterations, force evaluations = 6 6

MPI task timing breakdown:
Section |  min time  |  avg time  |  max time  |%varavg| %total
---------------------------------------------------------------
Pair    | 1.597      | 2.2745     | 3.6371     |  51.9 | 60.28
Neigh   | 0          | 0          | 0          |   0.0 |  0.00
Comm    | 0.065364   | 1.4214     | 2.093      |  65.5 | 37.67
Output  | 0          | 0          | 0          |   0.0 |  0.00
Modify  | 0          | 0          | 0          |   0.0 |  0.00
Other   |            | 0.07754    |            |       |  2.05

Nlocal:    7.9375 ave 8 max 7 min
Histogram: 1 0 0 0 0 0 0 0 0 15
Nghost:    819.812 ave 824 max 816 min
Histogram: 4 0 0 0 0 8 0 1 1 2
Neighs:    0 ave 0 max 0 min
Histogram: 16 0 0 0 0 0 0 0 0 0
FullNghs:  1602 ave 1623 max 1420 min
Histogram: 1 0 0 0 0 0 0 0 1 14

Total # of neighbors = 25632
Ave neighs/atom = 201.827
Neighbor list builds = 0
Dangerous builds = 0
Setting up quickmin style minimization ...
  Unit style    : metal
  Current step  : 0
Per MPI rank memory allocation (min/avg/max) = 4.736 | 4.737 | 4.737 Mbytes
Step Temp E_pair E_mol TotEng Press 
       0            0   -795.93409            0   -795.93409     11837.52 
       1   0.44337661   -795.93409            0   -795.92687    11843.401 
       2    3.0984355   -795.95563            0   -795.90516    11947.199 
       3    8.5567164   -795.99703            0   -795.85767    12170.917 
       4    16.807044   -796.05346            0   -795.77973    12537.969 
       5    26.541931   -796.11661            0   -795.68432    13045.999 
       6    34.505729   -796.17769            0    -795.6157    13609.091 
       7    39.755919   -796.23362            0   -795.58612    14051.628 
       8    47.567363   -796.28537            0   -795.51065     14252.93 
       9    57.682668   -796.33283            0   -795.39336    14284.953 
      10    69.046347    -796.3753            0   -795.25076    14353.891 
      11    78.711515   -796.41195            0   -795.12999    14506.736 
      12    75.013809   -796.43634            0    -795.2146    14384.111 
      13    3.7178245    -796.4421            0   -796.38154    13476.103 
      14    3.2960664   -796.44713            0   -796.39344    13502.286 
      15    3.0621023   -796.45192            0   -796.40205    13506.747 
      16    3.4464031   -796.45685            0   -796.40072    13519.689 
      17    3.8655709   -796.46189            0   -796.39893    13533.156 
      18    4.2780171   -796.46699            0   -796.39731     13547.27 
      19    4.6880256    -796.4721            0   -796.39575    13562.254 
      20    5.0844655   -796.47719            0   -796.39438    13578.025 
      21    5.4674078   -796.48223            0   -796.39318    13594.593 
      22    5.8277484   -796.48717            0   -796.39226     13611.73 
      23    6.1676661     -796.492            0   -796.39155    13629.516 
      24    6.4746712   -796.49669            0   -796.39123    13647.555 
      25    6.7584187   -796.50121            0   -796.39114    13666.269 
      26    6.9682832   -796.50555            0   -796.39206    13684.044 
      27     7.045716   -796.50965            0    -796.3949    13701.923 
      28    5.9640852   -796.51319            0   -796.41605     13699.23 
      29    1.9684796     -796.515            0   -796.48294    13658.699 
      30   0.21086539   -796.51558            0   -796.51215    13636.167 
      31    0.2910204   -796.51628            0   -796.51154    13639.639 
      32    0.3527337   -796.51704            0    -796.5113    13643.798 
      33   0.41562236   -796.51786            0   -796.51109      13648.4 
      34   0.48179244   -796.51874            0   -796.51089    13653.363 
      35   0.55114022   -796.51967            0   -796.51069    13658.675 
      36   0.62330043   -796.52064            0   -796.51049    13664.331 
      37   0.69783694   -796.52166            0    -796.5103    13670.317 
      38    0.7743092   -796.52272            0   -796.51011    13676.618 
      39   0.85227809   -796.52381            0   -796.50993    13683.212 
      40   0.93130763   -796.52493            0   -796.50976    13690.091 
      41    1.0109755   -796.52607            0   -796.50961     13697.24 
      42    1.0908731   -796.52724            0   -796.50947     13704.64 
      43    1.1706085   -796.52842            0   -796.50936    13712.275 
      44    1.2498127   -796.52962            0   -796.50927    13720.128 
      45    1.3281371   -796.53083            0    -796.5092    13728.179 
      46    1.4052603   -796.53205            0   -796.50916    13736.398 
      47    1.4808819   -796.53327            0   -796.50915    13744.772 
      48    1.5547381   -796.53449            0   -796.50917    13753.284 
      49    1.6265934   -796.53571            0   -796.50922    13761.912 
      50    1.6962344   -796.53693            0    -796.5093    13770.634 
      51    1.7634759   -796.53814            0   -796.50942    13779.428 
      52    1.8281652   -796.53936            0   -796.50958    13788.275 
      53    1.8901573   -796.54056            0   -796.50978    13797.144 
      54    1.9493853   -796.54176            0   -796.51001     13806.06 
      55    2.0054705   -796.54296            0    -796.5103    13814.825 
      56    2.0593989   -796.54415            0   -796.51061    13824.095 
      57    2.1013728   -796.54532            0    -796.5111    13830.845 
      58     2.090291   -796.54627            0   -796.51222    13846.077 
      59   0.51002593   -796.54665            0   -796.53834    13817.744 
      60  0.035756033   -796.54678            0    -796.5462     13813.68 
      61  0.037067394   -796.54692            0   -796.54632    13815.326 
      62  0.043258672   -796.54708            0   -796.54637    13816.685 
      63  0.051613635   -796.54725            0   -796.54641    13818.001 
      64  0.060876394   -796.54744            0   -796.54645    13819.384 
      65  0.070822818   -796.54764            0   -796.54649    13820.865 
      66  0.081400596   -796.54786            0   -796.54654    13822.448 
      67  0.092573875    -796.5481            0   -796.54659    13824.131 
      68   0.10430684   -796.54835            0   -796.54665    13825.913 
      69   0.11656201   -796.54861            0   -796.54671    13827.791 
      70    0.1293006   -796.54889            0   -796.54678    13829.761 
      71   0.14248283   -796.54918            0   -796.54686    13831.821 
      72   0.15606802   -796.54949            0   -796.54695    13833.965 
      73    0.1700149   -796.54981            0   -796.54704    13836.191 
      74    0.1842817   -796.55014            0   -796.54714    13838.494 
      75   0.19882641   -796.55049            0   -796.54725    13840.867 
      76   0.21360709   -796.55085            0   -796.54737    13843.306 
      77   0.22858207   -796.55122            0    -796.5475    13845.807 
      78   0.24370991   -796.55161            0   -796.54764    13848.365 
      79   0.25895018     -796.552            0   -796.54779    13850.974 
      80   0.27426363   -796.55241            0   -796.54795    13853.629 
      81   0.28961085   -796.55284            0   -796.54812    13856.324 
      82   0.30495377   -796.55327            0    -796.5483    13859.054 
      83   0.32025651   -796.55372            0    -796.5485    13861.813 
      84   0.33548333   -796.55417            0   -796.54871    13864.594 
      85   0.35060263   -796.55464            0   -796.54893    13867.384 
      86   0.36557619   -796.55513            0   -796.54917    13870.184 
      87   0.38038587   -796.55562            0   -796.54942    13872.984 
      88   0.39497962   -796.55613            0   -796.54969    13875.779 
      89   0.40937472   -796.55664            0   -796.54998    13878.554 
      90   0.42305492   -796.55717            0   -796.55028    13881.349 
      91   0.43145083   -796.55771            0   -796.55068    13883.836 
      92   0.35842845   -796.55818            0   -796.55235    13885.749 
      93  0.034159026    -796.5583            0   -796.55775    13881.276 
      94  0.016907798   -796.55841            0   -796.55813    13881.606 
      95  0.019596673   -796.55852            0    -796.5582    13882.128 
      96  0.022585516   -796.55864            0   -796.55827    13882.692 
      97  0.025758301   -796.55877            0   -796.55835    13883.291 
      98  0.029110848    -796.5589            0   -796.55843    13883.925 
      99  0.032635159   -796.55905            0   -796.55852    13884.594 
     100  0.036323978   -796.55921            0   -796.55862    13885.297 
     101   0.04016938   -796.55937            0   -796.55872    13886.031 
     102  0.044163376   -796.55955            0   -796.55883    13886.795 
     103  0.048297634   -796.55973            0   -796.55894    13887.589 
     104  0.052563694   -796.55992            0   -796.55906     13888.41 
     105  0.056952854   -796.56012            0   -796.55919    13889.257 
     106  0.061456376   -796.56032            0   -796.55932    13890.128 
     107  0.066065314   -796.56054            0   -796.55947    13891.023 
     108  0.070770765   -796.56077            0   -796.55961    13891.937 
     109  0.075563641     -796.561            0   -796.55977    13892.871 
     110  0.080435152   -796.56124            0   -796.55993    13893.823 
     111  0.085375883   -796.56149            0    -796.5601     13894.79 
     112  0.090377721   -796.56175            0   -796.56028    13895.771 
     113  0.095430281   -796.56201            0   -796.56046    13896.762 
     114   0.10052819   -796.56229            0   -796.56065    13897.766 
     115   0.10565485   -796.56257            0   -796.56085    13898.772 
     116   0.11082177   -796.56286            0   -796.56106    13899.792 
     117   0.11596505   -796.56316            0   -796.56127    13900.791 
     118   0.12122758   -796.56346            0   -796.56149    13901.867 
     119   0.12605165   -796.56378            0   -796.56172     13902.71 
     120   0.13128151    -796.5641            0   -796.56196    13904.289 
     121   0.12397874   -796.56439            0   -796.56237     13903.26 
     122  0.054792013   -796.56452            0   -796.56363     13905.28 
     123 0.0029579798   -796.56456            0   -796.56451     13904.14 
     124 0.0032555586    -796.5646            0   -796.56455    13903.861 
     125  0.003675039   -796.56465            0   -796.56459    13903.805 
     126 0.0044372922    -796.5647            0   -796.56463    13903.901 
     127 0.0053831856   -796.56477            0   -796.56468    13904.068 
     128 0.0064252797   -796.56483            0   -796.56473    13904.266 
     129 0.0075518837   -796.56491            0   -796.56478    13904.483 
     130 0.0087623815   -796.56499            0   -796.56485    13904.716 
     131   0.01005522   -796.56507            0   -796.56491    13904.964 
     132  0.011428281   -796.56517            0   -796.56498    13905.229 
     133  0.012879301   -796.56527            0   -796.56506    13905.508 
     134    0.0144059   -796.56537            0   -796.56514    13905.802 
     135  0.016005582   -796.56548            0   -796.56522    13906.111 
     136  0.017675739    -796.5656            0   -796.56531    13906.432 
     137  0.019413671   -796.56572            0   -796.56541    13906.767 
     138  0.021216585   -796.56585            0    -796.5655    13907.114 
     139  0.023081597   -796.56599            0   -796.56561    13907.473 
     140  0.025005736   -796.56613            0   -796.56572    13907.843 
     141  0.026985973   -796.56627            0   -796.56583    13908.225 
     142  0.029019221   -796.56642            0   -796.56595    13908.616 
     143  0.031102324   -796.56658            0   -796.56608    13909.016 
     144  0.033232066   -796.56675            0    -796.5662    13909.425 
     145  0.035405233   -796.56691            0   -796.56634    13909.842 
     146   0.03761853   -796.56709            0   -796.56648    13910.266 
     147  0.039868698   -796.56727            0   -796.56662    13910.697 
     148  0.042152408   -796.56745            0   -796.56677    13911.134 
     149  0.044466383   -796.56765            0   -796.56692    13911.577 
     150  0.046807194   -796.56784            0   -796.56708    13912.024 
     151  0.049171777   -796.56804            0   -796.56724    13912.474 
     152  0.051556212   -796.56825            0   -796.56741    13912.928 
     153  0.053958643   -796.56846            0   -796.56758    13913.384 
     154  0.056371245   -796.56868            0   -796.56776    13913.842 
     155  0.058799623    -796.5689            0   -796.56794    13914.304 
     156  0.061167076   -796.56912            0   -796.56812     13914.76 
     157  0.063153997   -796.56935            0   -796.56832    13915.223 
     158  0.059163709   -796.56957            0   -796.56861    13915.549 
     159  0.021845121   -796.56969            0   -796.56933    13915.285 
     160 0.00032846665    -796.5697            0    -796.5697    13915.022 
     161 0.00053806909   -796.56972            0   -796.56971    13915.056 
     162 0.00083071483   -796.56974            0   -796.56973    13915.099 
     163 0.0011762157   -796.56977            0   -796.56975    13915.152 
     164  0.001534403    -796.5698            0   -796.56977    13915.212 
     165 0.0019159443   -796.56984            0   -796.56981    13915.281 
     166 0.0023348922   -796.56988            0   -796.56984    13915.359 
     167 0.0027933211   -796.56992            0   -796.56988    13915.444 
     168 0.0032906719   -796.56997            0   -796.56992    13915.537 
     169 0.0038263409   -796.57003            0   -796.56996    13915.638 
     170  0.004399642   -796.57009            0   -796.57001    13915.745 
     171  0.005009797   -796.57015            0   -796.57007     13915.86 
     172 0.0056559776   -796.57021            0   -796.57012    13915.982 
     173 0.0063372834   -796.57028            0   -796.57018     13916.11 
     174 0.0070527766   -796.57036            0   -796.57024    13916.245 
     175 0.0078014739   -796.57044            0   -796.57031    13916.387 
     176 0.0085823512   -796.57052            0   -796.57038    13916.534 
     177 0.0093943354    -796.5706            0   -796.57045    13916.688 
     178  0.010236319   -796.57069            0   -796.57053    13916.847 
     179  0.011107165   -796.57079            0   -796.57061    13917.012 
     180  0.012005678   -796.57089            0   -796.57069    13917.182 
     181  0.012930641   -796.57099            0   -796.57078    13917.358 
     182  0.013880802   -796.57109            0   -796.57087    13917.538 
     183  0.014854884    -796.5712            0   -796.57096    13917.723 
     184   0.01585158   -796.57131            0   -796.57106    13917.912 
     185  0.016869562   -796.57143            0   -796.57116    13918.106 
     186  0.017907502   -796.57155            0   -796.57126    13918.304 
     187     0.018964   -796.57167            0   -796.57136    13918.505 
     188  0.020037664    -796.5718            0   -796.57147     13918.71 
     189  0.021127087   -796.57193            0   -796.57158    13918.918 
     190  0.022230841   -796.57206            0    -796.5717    13919.129 
     191  0.023347507    -796.5722            0   -796.57182    13919.343 
     192  0.024475554   -796.57234            0   -796.57194     13919.56 
     193  0.025613752   -796.57248            0   -796.57206    13919.779 
     194  0.026758819   -796.57262            0   -796.57219    13919.998 
     195  0.027905615   -796.57277            0   -796.57232    13920.225 
     196  0.028956086   -796.57292            0   -796.57245     13920.43 
     197  0.028993035   -796.57307            0    -796.5726    13920.698 
     198  0.019210506   -796.57319            0   -796.57288    13920.542 
     199 0.0010493599   -796.57322            0    -796.5732    13920.454 
     200 0.0016944167   -796.57326            0   -796.57323    13920.535 
     201  0.001950273   -796.57329            0   -796.57326    13920.584 
     202 0.0022437293   -796.57333            0    -796.5733    13920.642 
     203 0.0025557715   -796.57338            0   -796.57333    13920.702 
     204 0.0028866445   -796.57342            0   -796.57337    13920.767 
     205 0.0032356921   -796.57347            0   -796.57342    13920.835 
     206 0.0036025681   -796.57352            0   -796.57346    13920.907 
     207 0.0039867539   -796.57357            0   -796.57351    13920.982 
     208 0.0043877981   -796.57363            0   -796.57356    13921.061 
     209 0.0048051661   -796.57369            0   -796.57361    13921.143 
     210 0.0052383537   -796.57375            0   -796.57367    13921.228 
     211 0.0056867862   -796.57382            0   -796.57372    13921.317 
     212 0.0061499257   -796.57388            0   -796.57378    13921.409 
     213 0.0066271505   -796.57395            0   -796.57385    13921.503 
     214 0.0071179321   -796.57403            0   -796.57391      13921.6 
     215 0.0076215494    -796.5741            0   -796.57398      13921.7 
     216 0.0081375055   -796.57418            0   -796.57405    13921.802 
     217 0.0086649073   -796.57426            0   -796.57412    13921.907 
     218 0.0092035389   -796.57434            0   -796.57419    13922.015 
     219 0.0097518275   -796.57442            0   -796.57426    13922.124 
     220  0.010310947   -796.57451            0   -796.57434    13922.239 
     221  0.010875792    -796.5746            0   -796.57442    13922.348 
     222  0.011455051   -796.57469            0    -796.5745    13922.477 
     223  0.012016548   -796.57478            0   -796.57459    13922.562 
     224  0.012589739   -796.57488            0   -796.57467    13922.774 
     225  0.012676766   -796.57497            0   -796.57477    13922.625 
     226  0.010659369   -796.57505            0   -796.57488    13923.317 
     227 0.0026101835   -796.57508            0   -796.57504    13922.708 
     228  0.001064344   -796.57511            0   -796.57509    13922.825 
     229 0.0011614678   -796.57513            0   -796.57511    13922.851 
     230 0.0013388625   -796.57516            0   -796.57514    13922.889 
     231 0.0015273601   -796.57519            0   -796.57517    13922.928 
     232 0.0017275338   -796.57523            0    -796.5752    13922.969 
     233 0.0019388704   -796.57526            0   -796.57523    13923.013 
     234 0.0021612089    -796.5753            0   -796.57527     13923.06 
     235 0.0023942306   -796.57534            0    -796.5753    13923.108 
     236 0.0026376803   -796.57538            0   -796.57534    13923.159 
     237  0.002891237   -796.57543            0   -796.57538    13923.212 
     238 0.0031546078   -796.57547            0   -796.57542    13923.267 
     239 0.0034274533   -796.57552            0   -796.57547    13923.325 
     240 0.0037094595   -796.57557            0   -796.57551    13923.384 
     241  0.004000256   -796.57562            0   -796.57556    13923.446 
     242 0.0042995191   -796.57568            0   -796.57561    13923.509 
     243 0.0046068347   -796.57573            0   -796.57566    13923.574 
     244 0.0049219041   -796.57579            0   -796.57571    13923.642 
     245 0.0052442105   -796.57585            0   -796.57576    13923.711 
     246  0.005573595   -796.57591            0   -796.57582    13923.782 
     247 0.0059091987   -796.57597            0   -796.57588    13923.853 
     248 0.0062515598   -796.57604            0   -796.57594    13923.929 
     249 0.0065981493    -796.5761            0     -796.576    13924.001 
     250 0.0069535223   -796.57617            0   -796.57606    13924.087 
     251 0.0073050639   -796.57624            0   -796.57612    13924.143 
     252 0.0076863566   -796.57631            0   -796.57619    13924.283 
     253 0.0080232512   -796.57638            0   -796.57625    13924.193 
     254 0.0086672933   -796.57645            0   -796.57631    13924.752 
     255 0.0078738826    -796.5765            0   -796.57637    13923.845 
     256 0.0013212097   -796.57652            0    -796.5765     13924.21 
     257 0.00062084115   -796.57653            0   -796.57652    13924.368 
     258 0.00059939449   -796.57655            0   -796.57654    13924.395 
     259 0.00069850895   -796.57657            0   -796.57656    13924.417 
     260 0.00080561519    -796.5766            0   -796.57658    13924.441 
     261 0.00091982956   -796.57662            0    -796.5766    13924.467 
     262 0.0010410581   -796.57664            0   -796.57663    13924.494 
     263 0.0011691479   -796.57667            0   -796.57665    13924.523 
     264 0.0013039503    -796.5767            0   -796.57668    13924.554 
     265 0.0014453035   -796.57673            0    -796.5767    13924.586 
     266 0.0015930405   -796.57676            0   -796.57673    13924.619 
     267 0.0017469845   -796.57679            0   -796.57676    13924.654 
     268 0.0019069515   -796.57683            0    -796.5768    13924.691 
     269 0.0020727498   -796.57686            0   -796.57683    13924.729 
     270 0.0022441814    -796.5769            0   -796.57686    13924.768 
     271 0.0024210369   -796.57694            0    -796.5769    13924.809 
     272 0.0026031082   -796.57698            0   -796.57694    13924.851 
     273 0.0027901758   -796.57702            0   -796.57697    13924.894 
     274 0.0029820168   -796.57706            0   -796.57701    13924.939 
     275 0.0031783963   -796.57711            0   -796.57705    13924.985 
     276 0.0033790861   -796.57715            0    -796.5771    13925.032 
     277 0.0035838241    -796.5772            0   -796.57714     13925.08 
     278 0.0037923968   -796.57725            0   -796.57718    13925.129 
     279 0.0040044882    -796.5773            0   -796.57723    13925.178 
     280 0.0042199977   -796.57735            0   -796.57728     13925.23 
     281 0.0044382914    -796.5774            0   -796.57733    13925.281 
     282  0.004660073   -796.57745            0   -796.57738    13925.336 
     283 0.0048825132   -796.57751            0   -796.57743    13925.383 
     284  0.005113406   -796.57756            0   -796.57748    13925.456 
     285 0.0053355802   -796.57762            0   -796.57753    13925.454 
     286 0.0056828808   -796.57767            0   -796.57758    13925.695 
     287  0.006435137   -796.57773            0   -796.57762    13925.193 
     288 0.0047257654   -796.57775            0   -796.57767    13925.969 
     289 0.00033597932   -796.57776            0   -796.57775    13925.726 
     290 0.00023724304   -796.57777            0   -796.57776    13925.618 
     291 0.00021247413   -796.57778            0   -796.57777    13925.585 
     292 0.00024802719   -796.57779            0   -796.57778    13925.586 
     293 0.00029656698    -796.5778            0    -796.5778    13925.597 
     294 0.00034963403   -796.57782            0   -796.57781     13925.61 
     295 0.00040681952   -796.57783            0   -796.57782    13925.624 
     296 0.00046809075   -796.57785            0   -796.57784    13925.639 
     297 0.00053337871   -796.57786            0   -796.57785    13925.655 
     298 0.00060260764   -796.57788            0   -796.57787    13925.672 
     299 0.00067569713    -796.5779            0   -796.57789     13925.69 
     300 0.00075256199   -796.57792            0   -796.57791    13925.709 
     301 0.0008331124   -796.57794            0   -796.57793    13925.729 
     302  0.000917254   -796.57797            0   -796.57795     13925.75 
     303 0.0010048881   -796.57799            0   -796.57797    13925.772 
     304 0.0010959115   -796.57801            0     -796.578    13925.795 
     305  0.001190217   -796.57804            0   -796.57802    13925.818 
     306 0.0012876933   -796.57807            0   -796.57805    13925.843 
     307 0.0013882252   -796.57809            0   -796.57807    13925.868 
     308 0.0014916935   -796.57812            0    -796.5781    13925.894 
     309 0.0015979755   -796.57815            0   -796.57813    13925.921 
     310  0.001706945   -796.57818            0   -796.57816    13925.949 
     311  0.001818472   -796.57822            0   -796.57819    13925.978 
     312 0.0019324234   -796.57825            0   -796.57822    13926.007 
     313 0.0020486634   -796.57828            0   -796.57825    13926.037 
     314  0.002167053   -796.57832            0   -796.57828    13926.067 
     315 0.0022874506   -796.57835            0   -796.57832    13926.098 
     316 0.0024097105   -796.57839            0   -796.57835     13926.13 
     317 0.0025336883   -796.57843            0   -796.57839    13926.162 
     318 0.0026592272   -796.57847            0   -796.57842    13926.194 
     319 0.0027861952   -796.57851            0   -796.57846    13926.228 
     320  0.002914381   -796.57855            0    -796.5785    13926.261 
     321 0.0030438078   -796.57859            0   -796.57854    13926.296 
     322 0.0031737523   -796.57863            0   -796.57858    13926.328 
     323 0.0033061525   -796.57867            0   -796.57862    13926.371 
     324 0.0034358615   -796.57872            0   -796.57866    13926.376 
     325 0.0036165769   -796.57876            0    -796.5787    13926.523 
     326 0.0041214238    -796.5788            0   -796.57874     13926.15 
     327 0.0040773547   -796.57883            0   -796.57876    13926.932 
     328 2.4909073e-05   -796.57883            0   -796.57883    13926.832 
     329 4.7167704e-05   -796.57883            0   -796.57883    13926.763 
     330 6.8221463e-05   -796.57883            0   -796.57883    13926.677 
     331 7.8877441e-05   -796.57883            0   -796.57883    13926.589 
     332 7.6402468e-05   -796.57884            0   -796.57884    13926.518 
     333 7.4166858e-05   -796.57884            0   -796.57884    13926.477 
     334 8.383381e-05   -796.57885            0   -796.57885    13926.461 
     335  0.000102297   -796.57886            0   -796.57886    13926.459 
     336 0.00012468948   -796.57887            0   -796.57886    13926.463 
     337 0.00014944009   -796.57887            0   -796.57887     13926.47 
     338 0.00017633233   -796.57888            0   -796.57888    13926.477 
     339 0.00020534099   -796.57889            0   -796.57889    13926.484 
     340 0.00023643686    -796.5789            0    -796.5789    13926.493 
     341 0.00026958451   -796.57892            0   -796.57891    13926.501 
     342 0.0003047459   -796.57893            0   -796.57892    13926.511 
     343 0.00034188054   -796.57894            0   -796.57894    13926.521 
     344 0.0003809455   -796.57896            0   -796.57895    13926.531 
     345 0.00042189549   -796.57897            0   -796.57896    13926.542 
     346 0.00046468288   -796.57899            0   -796.57898    13926.553 
     347 0.00050925774     -796.579            0   -796.57899    13926.565 
     348 0.00055556793   -796.57902            0   -796.57901    13926.578 
     349 0.00060355918   -796.57904            0   -796.57903     13926.59 
     350 0.00065317507   -796.57906            0   -796.57905    13926.604 
     351 0.00070435706   -796.57908            0   -796.57906    13926.617 
     352 0.00075704469    -796.5791            0   -796.57908    13926.631 
     353 0.00081117557   -796.57912            0    -796.5791    13926.646 
     354 0.00086668537   -796.57914            0   -796.57912    13926.661 
     355 0.00092350798   -796.57916            0   -796.57915    13926.676 
     356 0.0009815755   -796.57918            0   -796.57917    13926.691 
     357 0.0010408183   -796.57921            0   -796.57919    13926.707 
     358 0.0011011649   -796.57923            0   -796.57921    13926.723 
     359  0.001162543   -796.57926            0   -796.57924     13926.74 
     360 0.0012248779   -796.57928            0   -796.57926    13926.756 
     361 0.0012880947   -796.57931            0   -796.57929    13926.773 
     362 0.0013521144   -796.57934            0   -796.57931     13926.79 
     363 0.0014168632   -796.57936            0   -796.57934    13926.808 
     364 0.0014822478   -796.57939            0   -796.57937    13926.825 
     365 0.0015482281   -796.57942            0    -796.5794    13926.843 
     366 0.0016145811   -796.57945            0   -796.57943    13926.859 
     367 0.0016816205   -796.57948            0   -796.57945     13926.88 
     368 0.0017468638   -796.57951            0   -796.57948    13926.887 
     369 0.0018069994   -796.57954            0   -796.57952    13926.946 
     370  0.001718516   -796.57957            0   -796.57955    13926.808 
     371 0.00067066435   -796.57959            0   -796.57958    13927.036 
     372 1.6809598e-05   -796.57959            0   -796.57959    13926.996 
     373 2.269097e-05   -796.57959            0   -796.57959    13926.965 
     374 2.8225543e-05   -796.57959            0   -796.57959     13926.94 
     375 3.4720113e-05    -796.5796            0    -796.5796    13926.926 
     376 4.3408575e-05    -796.5796            0    -796.5796    13926.921 
     377 5.3940586e-05   -796.57961            0   -796.57961    13926.922 
     378 6.5781496e-05   -796.57961            0   -796.57961    13926.924 
     379 7.8767597e-05   -796.57962            0   -796.57962    13926.928 
     380 9.2872982e-05   -796.57963            0   -796.57962    13926.931 
     381 0.00010808451   -796.57963            0   -796.57963    13926.935 
     382 0.00012438545   -796.57964            0   -796.57964    13926.939 
     383 0.00014175713   -796.57965            0   -796.57965    13926.943 
     384 0.00016017953   -796.57966            0   -796.57966    13926.948 
     385 0.00017963136   -796.57967            0   -796.57967    13926.953 
     386 0.00020009003   -796.57968            0   -796.57968    13926.958 
     387 0.00022153169   -796.57969            0   -796.57969    13926.963 
     388 0.00024393126    -796.5797            0    -796.5797    13926.969 
     389 0.00026726245   -796.57971            0   -796.57971    13926.975 
     390 0.00029149777   -796.57973            0   -796.57972     13926.98 
     391 0.00031660859   -796.57974            0   -796.57973    13926.987 
     392 0.00034256511   -796.57975            0   -796.57975    13926.993 
     393 0.00036933645   -796.57977            0   -796.57976    13926.999 
     394 0.00039689063   -796.57978            0   -796.57978    13927.006 
     395 0.00042519464    -796.5798            0   -796.57979    13927.013 
     396 0.00045421443   -796.57981            0   -796.57981     13927.02 
     397 0.00048391493   -796.57983            0   -796.57982    13927.027 
     398 0.00051426015   -796.57985            0   -796.57984    13927.034 
     399 0.00054521312   -796.57986            0   -796.57985    13927.041 
     400 0.00057673599   -796.57988            0   -796.57987    13927.049 
     401   0.00060879    -796.5799            0   -796.57989    13927.056 
     402 0.00064133556   -796.57992            0   -796.57991    13927.063 
     403 0.00067433225   -796.57994            0   -796.57993    13927.071 
     404 0.00070773883   -796.57996            0   -796.57995    13927.078 
     405 0.00074151348   -796.57998            0   -796.57997    13927.086 
     406 0.00077561329      -796.58            0   -796.57999    13927.093 
     407 0.00080999469   -796.58002            0   -796.58001      13927.1 
     408 0.00084461247   -796.58004            0   -796.58003    13927.107 
     409 0.00087942655   -796.58007            0   -796.58005    13927.115 
     410 0.0009143606   -796.58009            0   -796.58007    13927.121 
     411 0.00094935068   -796.58011            0    -796.5801    13927.129 
     412 0.00098218251   -796.58014            0   -796.58012    13927.133 
     413 0.00098645298   -796.58016            0   -796.58014    13927.149 
     414 0.00062728037   -796.58018            0   -796.58017    13927.113 
     415 7.3777754e-06   -796.58018            0   -796.58018    13927.112 
     416 1.0852769e-05   -796.58018            0   -796.58018     13927.12 
     417 1.5009369e-05   -796.58018            0   -796.58018    13927.128 
     418 1.9494893e-05   -796.58019            0   -796.58019    13927.132 
     419 2.4232038e-05   -796.58019            0   -796.58019    13927.134 
     420 2.9760614e-05   -796.58019            0   -796.58019    13927.135 
     421 3.5978561e-05    -796.5802            0    -796.5802    13927.136 
     422 4.2783942e-05    -796.5802            0    -796.5802    13927.138 
     423 5.0154225e-05   -796.58021            0   -796.58021    13927.139 
     424 5.8079966e-05   -796.58021            0   -796.58021     13927.14 
     425 6.6552054e-05   -796.58022            0   -796.58022    13927.141 
     426 7.556061e-05   -796.58023            0   -796.58022    13927.143 
     427 8.5095075e-05   -796.58023            0   -796.58023    13927.144 
     428 9.5144222e-05   -796.58024            0   -796.58024    13927.146 
     429 0.00010569616   -796.58025            0   -796.58025    13927.147 
     430 0.00011673837   -796.58026            0   -796.58025    13927.149 
     431 0.00012825765   -796.58026            0   -796.58026     13927.15 
     432 0.00014024022   -796.58027            0   -796.58027    13927.152 
     433 0.00015267166   -796.58028            0   -796.58028    13927.154 
     434 0.00016553695   -796.58029            0   -796.58029    13927.155 
     435 0.00017882047    -796.5803            0    -796.5803    13927.157 
     436 0.00019250605   -796.58031            0   -796.58031    13927.159 
     437 0.00020657691   -796.58033            0   -796.58032    13927.161 
     438 0.00022101577   -796.58034            0   -796.58033    13927.162 
     439 0.00023580476   -796.58035            0   -796.58035    13927.164 
     440 0.00025092553   -796.58036            0   -796.58036    13927.166 
     441 0.00026635916   -796.58037            0   -796.58037    13927.167 
     442 0.00028208631   -796.58039            0   -796.58038    13927.169 
     443 0.00029808704    -796.5804            0    -796.5804     13927.17 
     444 0.00031434113   -796.58042            0   -796.58041    13927.171 
     445 0.00033082743   -796.58043            0   -796.58042    13927.173 
     446 0.00034752561   -796.58044            0   -796.58044    13927.174 
     447 0.00036441133   -796.58046            0   -796.58045    13927.175 
     448 0.00038147029   -796.58048            0   -796.58047    13927.176 
     449 0.0003986552   -796.58049            0   -796.58048    13927.176 
     450 0.00041602315   -796.58051            0    -796.5805    13927.178 
     451 0.00043326255   -796.58052            0   -796.58052    13927.174 
     452 0.00045127768   -796.58054            0   -796.58053    13927.189 
     453 0.00046549596   -796.58056            0   -796.58055    13927.132 
     454 0.00044908383   -796.58057            0   -796.58057    13927.304 
     455 4.2753032e-05   -796.58057            0   -796.58057    13927.221 
     456 2.8427461e-05   -796.58058            0   -796.58058    13927.176 
     457 2.1686474e-05   -796.58058            0   -796.58058     13927.17 
     458 2.5487641e-05   -796.58059            0   -796.58058     13927.17 
     459 2.9735428e-05   -796.58059            0   -796.58059     13927.17 
     460 3.4293671e-05   -796.58059            0   -796.58059     13927.17 
     461 3.9155592e-05    -796.5806            0    -796.5806    13927.169 
     462 4.4315602e-05    -796.5806            0    -796.5806    13927.169 
     463 4.9767437e-05   -796.58061            0   -796.58061    13927.169 
     464 5.5504549e-05   -796.58062            0   -796.58062    13927.168 
     465 6.1519962e-05   -796.58062            0   -796.58062    13927.168 
     466 6.7806359e-05   -796.58063            0   -796.58063    13927.168 
     467 7.4356032e-05   -796.58064            0   -796.58064    13927.167 
     468 8.1160933e-05   -796.58064            0   -796.58064    13927.167 
     469 8.821264e-05   -796.58065            0   -796.58065    13927.166 
     470 9.5502403e-05   -796.58066            0   -796.58066    13927.165 
     471 0.00010302111   -796.58067            0   -796.58067    13927.164 
     472 0.00011075933   -796.58068            0   -796.58067    13927.163 
     473 0.00011870728   -796.58069            0   -796.58068    13927.162 
     474 0.00012685494   -796.58069            0   -796.58069    13927.161 
     475 0.00013519176    -796.5807            0    -796.5807     13927.16 
     476 0.00014370729   -796.58071            0   -796.58071    13927.159 
     477 0.00015239004   -796.58072            0   -796.58072    13927.157 
     478 0.00016122976   -796.58074            0   -796.58073    13927.156 
     479 0.00017021238   -796.58075            0   -796.58074    13927.154 
     480 0.00017933227   -796.58076            0   -796.58076    13927.152 
     481 0.0001885612   -796.58077            0   -796.58077     13927.15 
     482 0.00019793339   -796.58078            0   -796.58078    13927.148 
     483 0.00020731967   -796.58079            0   -796.58079    13927.143 
     484 0.00021725769   -796.58081            0    -796.5808    13927.149 
     485 0.00022808196   -796.58082            0   -796.58082    13927.119 
     486 0.00026091726   -796.58083            0   -796.58083    13927.207 
     487 0.0003188602   -796.58084            0   -796.58084    13927.001 
     488 2.5322376e-05   -796.58084            0   -796.58084    13927.057 
     489 1.9031539e-05   -796.58084            0   -796.58084    13927.105 
     490 1.0924983e-05   -796.58085            0   -796.58085    13927.125 
     491 1.058847e-05   -796.58085            0   -796.58085    13927.129 
     492 1.2603075e-05   -796.58085            0   -796.58085    13927.129 
     493 1.494358e-05   -796.58086            0   -796.58086    13927.128 
     494 1.7478297e-05   -796.58086            0   -796.58086    13927.127 
     495 2.0200548e-05   -796.58086            0   -796.58086    13927.126 
     496 2.3107048e-05   -796.58087            0   -796.58087    13927.125 
     497 2.6194239e-05   -796.58087            0   -796.58087    13927.124 
     498 2.9458325e-05   -796.58088            0   -796.58088    13927.122 
     499 3.2895269e-05   -796.58088            0   -796.58088    13927.121 
     500 3.6500799e-05   -796.58089            0   -796.58089     13927.12 
     501 4.0270409e-05   -796.58089            0   -796.58089    13927.118 
     502 4.4199363e-05    -796.5809            0    -796.5809    13927.116 
     503 4.8282701e-05    -796.5809            0    -796.5809    13927.115 
     504 5.2515239e-05   -796.58091            0   -796.58091    13927.113 
     505 5.6891574e-05   -796.58092            0   -796.58092    13927.111 
     506 6.1406091e-05   -796.58092            0   -796.58092    13927.108 
     507 6.605296e-05   -796.58093            0   -796.58093    13927.106 
     508 7.082615e-05   -796.58094            0   -796.58094    13927.104 
     509 7.5719423e-05   -796.58095            0   -796.58094    13927.101 
     510 8.0726348e-05   -796.58095            0   -796.58095    13927.098 
     511 8.5840291e-05   -796.58096            0   -796.58096    13927.095 
     512 9.1054446e-05   -796.58097            0   -796.58097    13927.092 
     513 9.6361787e-05   -796.58098            0   -796.58098    13927.089 
     514 0.00010175518   -796.58099            0   -796.58099    13927.086 
     515 0.00010722714     -796.581            0     -796.581    13927.082 
     516 0.00011277048   -796.58101            0   -796.58101    13927.078 
     517 0.00011837648   -796.58102            0   -796.58102    13927.074 
     518 0.00012404026   -796.58103            0   -796.58103     13927.07 
     519 0.00012974451   -796.58104            0   -796.58104    13927.065 
     520 0.00013551011   -796.58105            0   -796.58105    13927.062 
     521 0.00014121897   -796.58106            0   -796.58106    13927.054 
     522 0.00014710181   -796.58107            0   -796.58107    13927.059 
     523 0.00015000537   -796.58108            0   -796.58108    13927.016 
     524 0.00011609282   -796.58109            0   -796.58109    13927.104 
     525 2.203164e-06   -796.58109            0   -796.58109    13927.088 
     526 2.9908718e-06   -796.58109            0   -796.58109    13927.071 
     527 3.4874863e-06   -796.58109            0   -796.58109    13927.055 
     528 3.6936888e-06    -796.5811            0    -796.5811    13927.044 
     529 4.1995802e-06    -796.5811            0    -796.5811    13927.039 
     530 5.142235e-06    -796.5811            0    -796.5811    13927.037 
     531 6.284467e-06    -796.5811            0    -796.5811    13927.035 
     532 7.545476e-06    -796.5811            0    -796.5811    13927.034 
     533 8.9165331e-06   -796.58111            0   -796.58111    13927.033 
     534 1.0396209e-05   -796.58111            0   -796.58111    13927.031 
     535 1.1982709e-05   -796.58111            0   -796.58111     13927.03 
     536 1.3674035e-05   -796.58112            0   -796.58112    13927.028 
     537 1.5468046e-05   -796.58112            0   -796.58112    13927.026 
     538 1.736246e-05   -796.58112            0   -796.58112    13927.024 
     539 1.9354852e-05   -796.58113            0   -796.58113    13927.022 
     540 2.1442658e-05   -796.58113            0   -796.58113     13927.02 
     541 2.3623175e-05   -796.58114            0   -796.58114    13927.018 
     542 2.5893565e-05   -796.58114            0   -796.58114    13927.015 
     543 2.8250856e-05   -796.58115            0   -796.58115    13927.012 
     544 3.0691946e-05   -796.58115            0   -796.58115    13927.009 
     545  3.32136e-05   -796.58116            0   -796.58116    13927.007 
     546 3.5812461e-05   -796.58116            0   -796.58116    13927.003 
     547 3.8485045e-05   -796.58117            0   -796.58117        13927 
     548 4.1227745e-05   -796.58118            0   -796.58118    13926.997 
     549 4.4036836e-05   -796.58118            0   -796.58118    13926.993 
     550 4.6908475e-05   -796.58119            0   -796.58119    13926.989 
     551 4.9838709e-05    -796.5812            0    -796.5812    13926.985 
     552 5.2823459e-05    -796.5812            0    -796.5812    13926.981 
     553 5.585857e-05   -796.58121            0   -796.58121    13926.977 
     554 5.8939701e-05   -796.58122            0   -796.58122    13926.972 
     555 6.2062612e-05   -796.58123            0   -796.58123    13926.967 
     556  6.52224e-05   -796.58124            0   -796.58123    13926.962 
     557 6.841564e-05   -796.58124            0   -796.58124    13926.957 
     558 7.1633864e-05   -796.58125            0   -796.58125    13926.952 
     559 7.4881619e-05   -796.58126            0   -796.58126    13926.947 
     560 7.8090246e-05   -796.58127            0   -796.58127    13926.939 
     561 8.1050654e-05   -796.58128            0   -796.58128    13926.939 
     562 7.8711709e-05   -796.58129            0   -796.58129    13926.914 
     563 3.7840517e-05   -796.58129            0   -796.58129    13926.949 
     564 3.5920845e-07   -796.58129            0   -796.58129    13926.944 
     565 6.1106165e-07    -796.5813            0    -796.5813    13926.938 
     566 9.4319657e-07    -796.5813            0    -796.5813    13926.932 
     567 1.3501059e-06    -796.5813            0    -796.5813    13926.927 
     568 1.805777e-06    -796.5813            0    -796.5813    13926.923 
     569 2.3229337e-06    -796.5813            0    -796.5813     13926.92 
     570 2.9169157e-06    -796.5813            0    -796.5813    13926.919 
     571 3.5811809e-06    -796.5813            0    -796.5813    13926.918 
     572 4.3113605e-06   -796.58131            0   -796.58131    13926.916 
     573 5.1062853e-06   -796.58131            0   -796.58131    13926.915 
     574 5.9650338e-06   -796.58131            0   -796.58131    13926.913 
     575 6.8865088e-06   -796.58131            0   -796.58131    13926.911 
     576 7.8695116e-06   -796.58132            0   -796.58132    13926.909 
     577 8.9127568e-06   -796.58132            0   -796.58132    13926.907 
     578 1.0014871e-05   -796.58132            0   -796.58132    13926.905 
     579 1.1174396e-05   -796.58133            0   -796.58133    13926.902 
     580 1.2389787e-05   -796.58133            0   -796.58133      13926.9 
     581 1.3659417e-05   -796.58133            0   -796.58133    13926.897 
     582 1.4981575e-05   -796.58134            0   -796.58134    13926.894 
     583 1.635447e-05   -796.58134            0   -796.58134    13926.891 
     584 1.7776231e-05   -796.58135            0   -796.58135    13926.888 
     585 1.9244908e-05   -796.58135            0   -796.58135    13926.884 
     586 2.0758474e-05   -796.58136            0   -796.58136    13926.881 
     587 2.2314829e-05   -796.58136            0   -796.58136    13926.877 
     588 2.3911797e-05   -796.58137            0   -796.58137    13926.873 
     589 2.554713e-05   -796.58137            0   -796.58137    13926.869 
     590 2.7218509e-05   -796.58138            0   -796.58138    13926.865 
     591 2.8923548e-05   -796.58138            0   -796.58138     13926.86 
     592 3.0659791e-05   -796.58139            0   -796.58139    13926.856 
     593 3.2424724e-05    -796.5814            0   -796.58139    13926.851 
     594 3.4215749e-05    -796.5814            0    -796.5814    13926.846 
     595 3.6030262e-05   -796.58141            0   -796.58141    13926.841 
     596 3.7865434e-05   -796.58142            0   -796.58141    13926.835 
     597 3.9718834e-05   -796.58142            0   -796.58142     13926.83 
     598 4.1586261e-05   -796.58143            0   -796.58143    13926.824 
     599 4.3465124e-05   -796.58144            0   -796.58144    13926.818 
     600 4.5299485e-05   -796.58144            0   -796.58144    13926.811 
     601 4.656401e-05   -796.58145            0   -796.58145    13926.807 
     602 3.9946068e-05   -796.58146            0   -796.58146    13926.793 
     603 6.4036079e-06   -796.58146            0   -796.58146      13926.8 
     604 6.4013622e-07   -796.58146            0   -796.58146    13926.797 
     605 9.819952e-07   -796.58146            0   -796.58146    13926.796 
     606 1.322646e-06   -796.58147            0   -796.58147    13926.794 
     607 1.6766616e-06   -796.58147            0   -796.58147    13926.793 
     608 2.0667173e-06   -796.58147            0   -796.58147    13926.791 
     609 2.4959103e-06   -796.58147            0   -796.58147     13926.79 
     610 2.9638349e-06   -796.58147            0   -796.58147    13926.788 
     611 3.4699034e-06   -796.58147            0   -796.58147    13926.786 
     612 4.0134458e-06   -796.58148            0   -796.58148    13926.785 
     613 4.5937319e-06   -796.58148            0   -796.58148    13926.782 
     614 5.2099778e-06   -796.58148            0   -796.58148     13926.78 
     615 5.8613456e-06   -796.58148            0   -796.58148    13926.778 
     616 6.5469447e-06   -796.58149            0   -796.58149    13926.775 
     617 7.2658318e-06   -796.58149            0   -796.58149    13926.773 
     618 8.0170124e-06   -796.58149            0   -796.58149     13926.77 
     619 8.7994411e-06    -796.5815            0    -796.5815    13926.767 
     620 9.6120227e-06    -796.5815            0    -796.5815    13926.764 
     621 1.0453613e-05    -796.5815            0    -796.5815     13926.76 
     622 1.132302e-05   -796.58151            0   -796.58151    13926.757 
     623 1.2219006e-05   -796.58151            0   -796.58151    13926.753 
     624 1.3140284e-05   -796.58152            0   -796.58152    13926.749 
     625 1.4085524e-05   -796.58152            0   -796.58152    13926.745 
     626 1.5053355e-05   -796.58153            0   -796.58153    13926.741 
     627 1.6042358e-05   -796.58153            0   -796.58153    13926.737 
     628 1.7051077e-05   -796.58154            0   -796.58154    13926.732 
     629 1.8078012e-05   -796.58154            0   -796.58154    13926.728 
     630 1.9121628e-05   -796.58155            0   -796.58155    13926.723 
     631 2.0180346e-05   -796.58155            0   -796.58155    13926.718 
     632 2.1252562e-05   -796.58156            0   -796.58156    13926.712 
     633 2.2336601e-05   -796.58156            0   -796.58156    13926.707 
     634 2.3430676e-05   -796.58157            0   -796.58157    13926.701 
     635 2.4531754e-05   -796.58157            0   -796.58157    13926.696 
     636 2.5621065e-05   -796.58158            0   -796.58158     13926.69 
     637 2.6482251e-05   -796.58159            0   -796.58159    13926.683 
     638 2.4282519e-05   -796.58159            0   -796.58159    13926.677 
     639 6.3843382e-06    -796.5816            0    -796.5816    13926.675 
     640 7.5771974e-08    -796.5816            0    -796.5816    13926.675 
     641 1.4465698e-07    -796.5816            0    -796.5816    13926.674 
     642 2.6100193e-07    -796.5816            0    -796.5816    13926.673 
     643 4.2728234e-07    -796.5816            0    -796.5816    13926.672 
     644 6.1461725e-07    -796.5816            0    -796.5816    13926.671 
     645 8.105814e-07    -796.5816            0    -796.5816     13926.67 
     646 1.0251182e-06    -796.5816            0    -796.5816    13926.669 
     647 1.2631757e-06    -796.5816            0    -796.5816    13926.668 
     648 1.5251647e-06   -796.58161            0   -796.58161    13926.666 
     649 1.8107628e-06   -796.58161            0   -796.58161    13926.664 
     650 2.1195791e-06   -796.58161            0   -796.58161    13926.663 
     651 2.4511886e-06   -796.58161            0   -796.58161    13926.661 
     652 2.805133e-06   -796.58161            0   -796.58161    13926.659 
     653 3.1809197e-06   -796.58161            0   -796.58161    13926.657 
     654 3.5780225e-06   -796.58162            0   -796.58162    13926.654 
     655 3.9958821e-06   -796.58162            0   -796.58162    13926.652 
     656 4.4339067e-06   -796.58162            0   -796.58162    13926.649 
     657 4.8914723e-06   -796.58163            0   -796.58163    13926.646 
     658 5.3679237e-06   -796.58163            0   -796.58163    13926.643 
     659 5.8625745e-06   -796.58163            0   -796.58163     13926.64 
     660 6.3747082e-06   -796.58163            0   -796.58163    13926.637 
     661 6.9035787e-06   -796.58164            0   -796.58164    13926.633 
     662 7.4484111e-06   -796.58164            0   -796.58164     13926.63 
     663 8.008402e-06   -796.58164            0   -796.58164    13926.626 
     664 8.5827212e-06   -796.58165            0   -796.58165    13926.622 
     665 9.170511e-06   -796.58165            0   -796.58165    13926.618 
     666 9.7708891e-06   -796.58166            0   -796.58166    13926.614 
     667 1.0382946e-05   -796.58166            0   -796.58166    13926.609 
     668 1.1005753e-05   -796.58167            0   -796.58167    13926.605 
     669 1.1638343e-05   -796.58167            0   -796.58167      13926.6 
     670 1.2279772e-05   -796.58167            0   -796.58167    13926.595 
     671 1.2928942e-05   -796.58168            0   -796.58168     13926.59 
     672 1.3585141e-05   -796.58168            0   -796.58168    13926.585 
     673 1.4246344e-05   -796.58169            0   -796.58169    13926.579 
     674 1.491511e-05   -796.58169            0   -796.58169    13926.574 
     675 1.5580692e-05    -796.5817            0    -796.5817    13926.567 
     676 1.6325061e-05   -796.58171            0   -796.58171    13926.565 
     677 1.7532576e-05   -796.58171            0   -796.58171    13926.543 
     678 2.4063738e-05   -796.58172            0   -796.58172    13926.588 
     679 3.7293587e-06   -796.58172            0   -796.58172    13926.562 
     680 1.5859679e-06   -796.58172            0   -796.58172    13926.548 
     681 8.7446262e-07   -796.58172            0   -796.58172    13926.547 
     682 1.0440752e-06   -796.58172            0   -796.58172    13926.545 
     683 1.2278969e-06   -796.58172            0   -796.58172    13926.544 
     684 1.4257782e-06   -796.58172            0   -796.58172    13926.542 
     685 1.6373744e-06   -796.58173            0   -796.58173     13926.54 
     686 1.8624066e-06   -796.58173            0   -796.58173    13926.538 
     687 2.1005414e-06   -796.58173            0   -796.58173    13926.536 
     688 2.3514436e-06   -796.58173            0   -796.58173    13926.533 
     689 2.6147441e-06   -796.58173            0   -796.58173    13926.531 
     690 2.8900657e-06   -796.58174            0   -796.58174    13926.528 
     691 3.1769994e-06   -796.58174            0   -796.58174    13926.526 
     692 3.4751315e-06   -796.58174            0   -796.58174    13926.523 
     693 3.7840105e-06   -796.58174            0   -796.58174     13926.52 
     694 4.1031942e-06   -796.58175            0   -796.58175    13926.516 
     695 4.4321788e-06   -796.58175            0   -796.58175    13926.513 
     696 4.7705195e-06   -796.58175            0   -796.58175    13926.509 
     697 5.1176107e-06   -796.58176            0   -796.58176    13926.506 
     698 5.4731235e-06   -796.58176            0   -796.58176    13926.502 
     699 5.8360785e-06   -796.58176            0   -796.58176    13926.498 
     700 6.2069748e-06   -796.58177            0   -796.58177    13926.494 
     701 6.5827333e-06   -796.58177            0   -796.58177    13926.489 
     702 6.9706549e-06   -796.58177            0   -796.58177    13926.486 
     703 7.358245e-06   -796.58178            0   -796.58178    13926.479 
     704 7.8761619e-06   -796.58178            0   -796.58178     13926.48 
     705 8.9915838e-06   -796.58179            0   -796.58179    13926.458 
     706 1.1561512e-05   -796.58179            0   -796.58179    13926.493 
     707 1.6341489e-06   -796.58179            0   -796.58179    13926.476 
     708 7.5271426e-07   -796.58179            0   -796.58179    13926.467 
     709 5.1257715e-07   -796.58179            0   -796.58179    13926.465 
     710 6.1622327e-07   -796.58179            0   -796.58179    13926.463 
     711 7.3507305e-07   -796.58179            0   -796.58179    13926.462 
     712 8.6388764e-07    -796.5818            0    -796.5818     13926.46 
     713 1.0024535e-06    -796.5818            0    -796.5818    13926.459 
     714 1.1505787e-06    -796.5818            0    -796.5818    13926.457 
     715 1.3080474e-06    -796.5818            0    -796.5818    13926.455 
     716 1.4746329e-06    -796.5818            0    -796.5818    13926.453 
     717 1.6500918e-06    -796.5818            0    -796.5818    13926.451 
     718 1.8341681e-06   -796.58181            0   -796.58181    13926.448 
     719 2.0265905e-06   -796.58181            0   -796.58181    13926.446 
     720 2.2270756e-06   -796.58181            0   -796.58181    13926.443 
     721 2.4353246e-06   -796.58181            0   -796.58181     13926.44 
     722 2.6510288e-06   -796.58181            0   -796.58181    13926.437 
     723 2.8738622e-06   -796.58182            0   -796.58182    13926.434 
     724 3.1034941e-06   -796.58182            0   -796.58182    13926.431 
     725 3.3395686e-06   -796.58182            0   -796.58182    13926.428 
     726 3.581744e-06   -796.58183            0   -796.58183    13926.424 
     727 3.8296134e-06   -796.58183            0   -796.58183    13926.421 
     728 4.0828813e-06   -796.58183            0   -796.58183    13926.417 
     729 4.3409503e-06   -796.58183            0   -796.58183    13926.413 
     730 4.6039607e-06   -796.58184            0   -796.58184    13926.409 
     731 4.8700729e-06   -796.58184            0   -796.58184    13926.405 
     732 5.1434846e-06   -796.58185            0   -796.58185    13926.401 
     733 5.4145035e-06   -796.58185            0   -796.58185    13926.395 
     734 5.7643012e-06   -796.58185            0   -796.58185    13926.395 
     735 6.4403975e-06   -796.58186            0   -796.58186    13926.375 
     736 6.5613332e-06   -796.58186            0   -796.58186    13926.402 
     737 3.4972282e-07   -796.58186            0   -796.58186    13926.395 
     738 3.2792516e-07   -796.58186            0   -796.58186    13926.388 
     739 2.4867345e-07   -796.58186            0   -796.58186    13926.384 
     740 2.4980148e-07   -796.58186            0   -796.58186    13926.382 
     741 3.0693832e-07   -796.58186            0   -796.58186     13926.38 
     742 3.7686929e-07   -796.58186            0   -796.58186    13926.379 
     743 4.5375521e-07   -796.58186            0   -796.58186    13926.378 
     744 5.3743133e-07   -796.58186            0   -796.58186    13926.376 
     745 6.2778659e-07   -796.58187            0   -796.58187    13926.375 
     746 7.2468976e-07   -796.58187            0   -796.58187    13926.373 
     747 8.2800107e-07   -796.58187            0   -796.58187    13926.372 
     748   9.3757e-07   -796.58187            0   -796.58187     13926.37 
     749 1.0532365e-06   -796.58187            0   -796.58187    13926.368 
     750 1.1748304e-06   -796.58187            0   -796.58187    13926.365 
     751 1.3021724e-06   -796.58188            0   -796.58188    13926.363 
     752 1.4350735e-06   -796.58188            0   -796.58188    13926.361 
     753 1.5733359e-06   -796.58188            0   -796.58188    13926.358 
     754 1.7167525e-06   -796.58188            0   -796.58188    13926.356 
     755 1.8651084e-06   -796.58188            0   -796.58188    13926.353 
     756 2.018179e-06   -796.58189            0   -796.58189     13926.35 
     757 2.1757337e-06   -796.58189            0   -796.58189    13926.347 
     758 2.3375305e-06   -796.58189            0   -796.58189    13926.344 
     759 2.5033271e-06   -796.58189            0   -796.58189     13926.34 
     760 2.6728583e-06    -796.5819            0    -796.5819    13926.337 
     761 2.8458885e-06    -796.5819            0    -796.5819    13926.333 
     762 3.022084e-06    -796.5819            0    -796.5819     13926.33 
     763 3.2013531e-06    -796.5819            0    -796.5819    13926.326 
     764 3.3829005e-06   -796.58191            0   -796.58191    13926.322 
     765 3.5681145e-06   -796.58191            0   -796.58191    13926.318 
     766 3.752493e-06   -796.58191            0   -796.58191    13926.313 
     767 3.9635409e-06   -796.58192            0   -796.58192    13926.311 
     768 4.270638e-06   -796.58192            0   -796.58192    13926.298 
     769 5.3173262e-06   -796.58192            0   -796.58192    13926.319 
     770 7.7933557e-07   -796.58192            0   -796.58192    13926.307 
     771 3.6043136e-07   -796.58192            0   -796.58192      13926.3 
     772 2.4631713e-07   -796.58193            0   -796.58193    13926.299 
     773 2.9723983e-07   -796.58193            0   -796.58193    13926.298 
     774 3.5282451e-07   -796.58193            0   -796.58193    13926.297 
     775 4.1294724e-07   -796.58193            0   -796.58193    13926.295 
     776 4.7747815e-07   -796.58193            0   -796.58193    13926.294 
     777 5.4633775e-07   -796.58193            0   -796.58193    13926.292 
     778 6.1941845e-07   -796.58193            0   -796.58193     13926.29 
     779 6.9661828e-07   -796.58193            0   -796.58193    13926.288 
     780 7.7781964e-07   -796.58193            0   -796.58193    13926.286 
     781 8.6290675e-07   -796.58194            0   -796.58194    13926.284 
     782 9.5174889e-07   -796.58194            0   -796.58194    13926.282 
     783 1.0442198e-06   -796.58194            0   -796.58194     13926.28 
     784 1.140173e-06   -796.58194            0   -796.58194    13926.278 
     785 1.2394778e-06   -796.58194            0   -796.58194    13926.275 
     786 1.3419623e-06   -796.58195            0   -796.58195    13926.272 
     787 1.4475141e-06   -796.58195            0   -796.58195     13926.27 
     788 1.555888e-06   -796.58195            0   -796.58195    13926.267 
     789 1.6671048e-06   -796.58195            0   -796.58195    13926.264 
     790 1.7805723e-06   -796.58195            0   -796.58195    13926.261 
     791 1.8972003e-06   -796.58196            0   -796.58196    13926.257 
     792 2.0143107e-06   -796.58196            0   -796.58196    13926.254 
     793 2.1415108e-06   -796.58196            0   -796.58196    13926.251 
     794 2.2762935e-06   -796.58196            0   -796.58196    13926.244 
     795 2.6257011e-06   -796.58197            0   -796.58197    13926.252 
     796 2.4171521e-06   -796.58197            0   -796.58197    13926.231 
     797 2.5547025e-07   -796.58197            0   -796.58197    13926.237 
     798 1.6457795e-07   -796.58197            0   -796.58197    13926.239 
     799 1.3464788e-07   -796.58197            0   -796.58197    13926.239 
     800 1.6220957e-07   -796.58197            0   -796.58197    13926.239 
     801 1.9747796e-07   -796.58197            0   -796.58197    13926.238 
     802 2.3616695e-07   -796.58197            0   -796.58197    13926.236 
     803 2.7813584e-07   -796.58197            0   -796.58197    13926.235 
     804 3.2332946e-07   -796.58197            0   -796.58197    13926.234 
     805 3.7168131e-07   -796.58198            0   -796.58198    13926.232 
     806 4.2312208e-07   -796.58198            0   -796.58198    13926.231 
     807 4.7757656e-07   -796.58198            0   -796.58198    13926.229 
     808 5.3496556e-07   -796.58198            0   -796.58198    13926.227 
     809 5.9520462e-07   -796.58198            0   -796.58198    13926.226 
     810 6.5820542e-07   -796.58198            0   -796.58198    13926.224 
     811 7.238745e-07   -796.58198            0   -796.58198    13926.221 
     812 7.9211515e-07   -796.58198            0   -796.58198    13926.219 
     813 8.6282501e-07   -796.58199            0   -796.58199    13926.217 
     814 9.3590021e-07   -796.58199            0   -796.58199    13926.215 
     815 1.0112286e-06   -796.58199            0   -796.58199    13926.212 
     816 1.0887029e-06   -796.58199            0   -796.58199     13926.21 
     817 1.1681943e-06   -796.58199            0   -796.58199    13926.207 
     818 1.2496112e-06     -796.582            0     -796.582    13926.204 
     819 1.3327616e-06     -796.582            0     -796.582    13926.201 
     820   1.4177e-06     -796.582            0     -796.582    13926.198 
     821 1.5038152e-06     -796.582            0     -796.582    13926.195 
     822 1.5925195e-06     -796.582            0     -796.582    13926.192 
     823 1.6803785e-06   -796.58201            0   -796.58201    13926.188 
     824 1.793594e-06   -796.58201            0   -796.58201    13926.187 
     825 2.0006047e-06   -796.58201            0   -796.58201    13926.175 
     826 1.9415831e-06   -796.58201            0   -796.58201    13926.189 
     827 9.7708553e-08   -796.58201            0   -796.58201    13926.185 
     828 9.5345658e-08   -796.58201            0   -796.58201    13926.182 
     829 7.6106102e-08   -796.58201            0   -796.58201    13926.179 
     830 7.8187634e-08   -796.58202            0   -796.58202    13926.178 
     831 9.6947848e-08   -796.58202            0   -796.58202    13926.177 
     832 1.1990246e-07   -796.58202            0   -796.58202    13926.176 
     833 1.4522161e-07   -796.58202            0   -796.58202    13926.175 
     834 1.7285622e-07   -796.58202            0   -796.58202    13926.174 
     835 2.0276986e-07   -796.58202            0   -796.58202    13926.173 
     836 2.3491959e-07   -796.58202            0   -796.58202    13926.171 
     837 2.6925967e-07   -796.58202            0   -796.58202     13926.17 
     838 3.0574072e-07   -796.58202            0   -796.58202    13926.169 
     839 3.4431023e-07   -796.58202            0   -796.58202    13926.167 
     840 3.8491236e-07   -796.58202            0   -796.58202    13926.166 
     841 4.2748822e-07   -796.58202            0   -796.58202    13926.164 
     842 4.7197573e-07   -796.58203            0   -796.58203    13926.162 
     843 5.1830999e-07   -796.58203            0   -796.58203     13926.16 
     844  5.66423e-07   -796.58203            0   -796.58203    13926.158 
     845 6.1624432e-07   -796.58203            0   -796.58203    13926.156 
     846 6.677002e-07   -796.58203            0   -796.58203    13926.154 
     847 7.2071547e-07   -796.58203            0   -796.58203    13926.151 
     848 7.7521015e-07   -796.58204            0   -796.58204    13926.149 
     849 8.3110694e-07   -796.58204            0   -796.58204    13926.147 
     850 8.8831459e-07   -796.58204            0   -796.58204    13926.144 
     851 9.4676888e-07   -796.58204            0   -796.58204    13926.141 
     852 1.0063267e-06   -796.58204            0   -796.58204    13926.139 
     853 1.067061e-06   -796.58204            0   -796.58204    13926.136 
     854 1.128418e-06   -796.58205            0   -796.58205    13926.133 
     855 1.1920337e-06   -796.58205            0   -796.58205     13926.13 
     856 1.2551239e-06   -796.58205            0   -796.58205    13926.126 
     857 1.3642547e-06   -796.58205            0   -796.58205    13926.126 
     858 1.6383522e-06   -796.58206            0   -796.58206    13926.112 
     859 4.8016532e-07   -796.58206            0   -796.58206     13926.12 
     860 8.6783712e-08   -796.58206            0   -796.58206    13926.119 
     861 1.0434579e-07   -796.58206            0   -796.58206    13926.118 
     862 1.2390436e-07   -796.58206            0   -796.58206    13926.117 
     863 1.4502494e-07   -796.58206            0   -796.58206    13926.116 
     864 1.6771363e-07   -796.58206            0   -796.58206    13926.115 
     865 1.9192134e-07   -796.58206            0   -796.58206    13926.114 
     866 2.1762387e-07   -796.58206            0   -796.58206    13926.113 
     867 2.4477706e-07   -796.58206            0   -796.58206    13926.111 
     868 2.7334931e-07   -796.58206            0   -796.58206     13926.11 
     869 3.0329218e-07   -796.58206            0   -796.58206    13926.108 
     870 3.3457212e-07   -796.58207            0   -796.58207    13926.106 
     871 3.6713131e-07   -796.58207            0   -796.58207    13926.105 
     872 4.0094263e-07   -796.58207            0   -796.58207    13926.103 
     873 4.3592411e-07   -796.58207            0   -796.58207    13926.101 
     874 4.7208617e-07   -796.58207            0   -796.58207    13926.099 
     875 5.092562e-07   -796.58207            0   -796.58207    13926.097 
     876 5.4764188e-07   -796.58207            0   -796.58207    13926.095 
     877 5.8661866e-07   -796.58207            0   -796.58207    13926.092 
     878 6.2773323e-07   -796.58208            0   -796.58208     13926.09 
     879 6.6840413e-07   -796.58208            0   -796.58208    13926.087 
     880 7.2858137e-07   -796.58208            0   -796.58208    13926.087 
     881 8.3300327e-07   -796.58208            0   -796.58208    13926.078 
     882 6.8561904e-07   -796.58208            0   -796.58208    13926.086 
     883 9.8017897e-08   -796.58208            0   -796.58208    13926.082 
     884 5.2464401e-08   -796.58208            0   -796.58208    13926.081 
     885 5.7550268e-08   -796.58208            0   -796.58208     13926.08 
     886 7.0365212e-08   -796.58208            0   -796.58208    13926.079 
     887 8.4418952e-08   -796.58208            0   -796.58208    13926.078 
     888 9.9696316e-08   -796.58209            0   -796.58209    13926.077 
     889 1.1617095e-07   -796.58209            0   -796.58209    13926.076 
     890 1.3382173e-07   -796.58209            0   -796.58209    13926.075 
     891 1.5262329e-07   -796.58209            0   -796.58209    13926.074 
     892 1.7254999e-07   -796.58209            0   -796.58209    13926.073 
     893 1.9357347e-07   -796.58209            0   -796.58209    13926.072 
     894 2.1566467e-07   -796.58209            0   -796.58209     13926.07 
     895 2.3879199e-07   -796.58209            0   -796.58209    13926.069 
     896 2.6292347e-07   -796.58209            0   -796.58209    13926.067 
     897 2.8802398e-07   -796.58209            0   -796.58209    13926.066 
     898 3.1405962e-07   -796.58209            0   -796.58209    13926.064 
     899 3.4099054e-07    -796.5821            0    -796.5821    13926.062 
     900  3.68784e-07    -796.5821            0    -796.5821     13926.06 
     901 3.9738904e-07    -796.5821            0    -796.5821    13926.058 
     902 4.2679028e-07    -796.5821            0    -796.5821    13926.056 
     903 4.5688603e-07    -796.5821            0    -796.5821    13926.054 
     904 4.8778772e-07    -796.5821            0    -796.5821    13926.052 
     905 5.1906276e-07    -796.5821            0    -796.5821     13926.05 
     906 5.5200939e-07   -796.58211            0   -796.58211    13926.048 
     907 5.8486388e-07   -796.58211            0   -796.58211    13926.044 
     908 6.4582084e-07   -796.58211            0   -796.58211    13926.045 
     909 7.669745e-07   -796.58211            0   -796.58211    13926.034 
     910 2.3834546e-07   -796.58211            0   -796.58211     13926.04 
     911 4.6847422e-08   -796.58211            0   -796.58211    13926.039 
     912 5.6752596e-08   -796.58211            0   -796.58211    13926.039 
     913 6.7564168e-08   -796.58211            0   -796.58211    13926.038 
     914 7.9271306e-08   -796.58211            0   -796.58211    13926.037 
     915 9.1857248e-08   -796.58211            0   -796.58211    13926.036 
     916 1.0530529e-07   -796.58211            0   -796.58211    13926.035 
     917 1.1959682e-07   -796.58211            0   -796.58211    13926.034 
     918 1.3471247e-07   -796.58212            0   -796.58212    13926.033 
     919 1.5063129e-07   -796.58212            0   -796.58212    13926.032 
     920 1.6733155e-07   -796.58212            0   -796.58212     13926.03 
     921 1.8478994e-07   -796.58212            0   -796.58212    13926.029 
     922 2.0298266e-07   -796.58212            0   -796.58212    13926.027 
     923 2.2188396e-07   -796.58212            0   -796.58212    13926.026 
     924 2.4146851e-07   -796.58212            0   -796.58212    13926.024 
     925 2.6170743e-07   -796.58212            0   -796.58212    13926.023 
     926 2.8257593e-07   -796.58212            0   -796.58212    13926.021 
     927 3.040376e-07   -796.58212            0   -796.58212    13926.019 
     928 3.2607968e-07   -796.58213            0   -796.58213    13926.017 
     929 3.4862892e-07   -796.58213            0   -796.58213    13926.015 
     930 3.7176684e-07   -796.58213            0   -796.58213    13926.013 
     931 3.9515191e-07   -796.58213            0   -796.58213    13926.011 
     932 4.1974822e-07   -796.58213            0   -796.58213    13926.009 
     933 4.4334088e-07   -796.58213            0   -796.58213    13926.006 
     934 4.8182025e-07   -796.58213            0   -796.58213    13926.007 
     935 4.5538233e-07   -796.58214            0   -796.58214    13925.999 
     936 4.4260548e-08   -796.58214            0   -796.58214    13926.001 
     937 3.3264818e-08   -796.58214            0   -796.58214    13926.002 
     938 2.5729321e-08   -796.58214            0   -796.58214    13926.002 
     939 3.0834822e-08   -796.58214            0   -796.58214    13926.002 
     940 3.7713317e-08   -796.58214            0   -796.58214    13926.001 
     941 4.5276056e-08   -796.58214            0   -796.58214        13926 
     942 5.3497199e-08   -796.58214            0   -796.58214        13926 
     943 6.2367517e-08   -796.58214            0   -796.58214    13925.999 
     944 7.1874682e-08   -796.58214            0   -796.58214    13925.998 
     945 8.200634e-08   -796.58214            0   -796.58214    13925.997 
     946 9.2748736e-08   -796.58214            0   -796.58214    13925.996 
     947 1.0408766e-07   -796.58214            0   -796.58214    13925.995 
     948 1.1600767e-07   -796.58214            0   -796.58214    13925.994 
     949 1.2849295e-07   -796.58214            0   -796.58214    13925.993 
     950 1.4152634e-07   -796.58214            0   -796.58214    13925.991 
     951 1.5509067e-07   -796.58214            0   -796.58214     13925.99 
     952 1.6916683e-07   -796.58214            0   -796.58214    13925.989 
     953 1.8373711e-07   -796.58215            0   -796.58215    13925.987 
     954 1.9877905e-07   -796.58215            0   -796.58215    13925.986 
     955 2.1427795e-07   -796.58215            0   -796.58215    13925.984 
     956 2.3019978e-07   -796.58215            0   -796.58215    13925.982 
     957 2.4655456e-07   -796.58215            0   -796.58215    13925.981 
     958 2.6323918e-07   -796.58215            0   -796.58215    13925.979 
     959 2.8046208e-07   -796.58215            0   -796.58215    13925.977 
     960 2.9761547e-07   -796.58215            0   -796.58215    13925.975 
     961 3.1737872e-07   -796.58215            0   -796.58215    13925.974 
     962 3.4044551e-07   -796.58216            0   -796.58216    13925.969 
     963 3.8037818e-07   -796.58216            0   -796.58216    13925.974 
     964 6.3492658e-08   -796.58216            0   -796.58216    13925.971 
     965 2.739435e-08   -796.58216            0   -796.58216    13925.969 
     966 2.568567e-08   -796.58216            0   -796.58216    13925.969 
     967 3.1063065e-08   -796.58216            0   -796.58216    13925.968 
     968 3.6951503e-08   -796.58216            0   -796.58216    13925.967 
     969 4.3322755e-08   -796.58216            0   -796.58216    13925.967 
     970 5.0172727e-08   -796.58216            0   -796.58216    13925.966 
     971 5.7490546e-08   -796.58216            0   -796.58216    13925.965 
     972 6.5267938e-08   -796.58216            0   -796.58216    13925.964 
     973 7.3493708e-08   -796.58216            0   -796.58216    13925.963 
     974 8.2158072e-08   -796.58216            0   -796.58216    13925.962 
     975 9.124851e-08   -796.58216            0   -796.58216    13925.961 
     976 1.0075452e-07   -796.58216            0   -796.58216     13925.96 
     977 1.1066144e-07   -796.58216            0   -796.58216    13925.959 
     978 1.2095959e-07   -796.58217            0   -796.58217    13925.958 
     979 1.3162941e-07   -796.58217            0   -796.58217    13925.956 
     980 1.4266815e-07   -796.58217            0   -796.58217    13925.955 
     981 1.5403782e-07   -796.58217            0   -796.58217    13925.954 
     982 1.6577583e-07   -796.58217            0   -796.58217    13925.952 
     983 1.7774566e-07   -796.58217            0   -796.58217    13925.951 
     984 1.9026713e-07   -796.58217            0   -796.58217    13925.949 
     985 2.0265839e-07   -796.58217            0   -796.58217    13925.947 
     986 2.1889424e-07   -796.58217            0   -796.58217    13925.947 
     987 2.4377661e-07   -796.58217            0   -796.58217    13925.942 
     988 2.5054047e-07   -796.58217            0   -796.58217    13925.947 
     989 3.1926399e-08   -796.58217            0   -796.58217    13925.944 
     990 1.7911825e-08   -796.58217            0   -796.58217    13925.943 
     991 1.5621865e-08   -796.58218            0   -796.58218    13925.942 
     992 1.9228742e-08   -796.58218            0   -796.58218    13925.942 
     993 2.331241e-08   -796.58218            0   -796.58218    13925.941 
     994 2.7774914e-08   -796.58218            0   -796.58218    13925.941 
     995 3.2609625e-08   -796.58218            0   -796.58218     13925.94 
     996 3.7810695e-08   -796.58218            0   -796.58218    13925.939 
     997  4.33714e-08   -796.58218            0   -796.58218    13925.939 
     998 4.928473e-08   -796.58218            0   -796.58218    13925.938 
     999 5.5543068e-08   -796.58218            0   -796.58218    13925.937 
    1000 6.2138451e-08   -796.58218            0   -796.58218    13925.936 
    1001 6.9062343e-08   -796.58218            0   -796.58218    13925.935 
    1002 7.6305917e-08   -796.58218            0   -796.58218    13925.934 
    1003 8.3859717e-08   -796.58218            0   -796.58218    13925.933 
    1004 9.1714189e-08   -796.58218            0   -796.58218    13925.932 
    1005 9.9858848e-08   -796.58218            0   -796.58218    13925.931 
    1006 1.0828381e-07   -796.58218            0   -796.58218     13925.93 
    1007 1.1697685e-07   -796.58218            0   -796.58218    13925.928 
    1008 1.2592968e-07   -796.58218            0   -796.58218    13925.927 
    1009 1.3512371e-07   -796.58219            0   -796.58219    13925.926 
    1010 1.4456495e-07   -796.58219            0   -796.58219    13925.924 
    1011 1.5419405e-07   -796.58219            0   -796.58219    13925.923 
    1012 1.6414364e-07   -796.58219            0   -796.58219    13925.921 
    1013 1.7406518e-07   -796.58219            0   -796.58219     13925.92 
    1014 1.861128e-07   -796.58219            0   -796.58219    13925.919 
    1015 2.0498046e-07   -796.58219            0   -796.58219    13925.915 
    1016 2.5856382e-07   -796.58219            0   -796.58219    13925.919 
    1017 3.3603135e-08   -796.58219            0   -796.58219    13925.917 
    1018 1.8163873e-08   -796.58219            0   -796.58219    13925.915 
    1019 1.1957027e-08   -796.58219            0   -796.58219    13925.914 
    1020 1.4609054e-08   -796.58219            0   -796.58219    13925.914 
    1021 1.7660103e-08   -796.58219            0   -796.58219    13925.913 
    1022 2.0992148e-08   -796.58219            0   -796.58219    13925.913 
[...]
    2250 1.2469361e-05   -796.53594            0   -796.53594    13995.577 
    2251 1.3238677e-05   -796.53594            0   -796.53594    13995.572 
    2252 1.4020512e-05   -796.53593            0   -796.53593    13995.567 
    2253 1.4785712e-05   -796.53593            0   -796.53593    13995.562 
    2254 1.5208381e-05   -796.53593            0   -796.53593    13995.557 
    2255 1.1991629e-05   -796.53593            0   -796.53593    13995.552 
    2256 1.3193825e-06   -796.53593            0   -796.53593     13995.55 
    2257 6.8503143e-07   -796.53593            0   -796.53593    13995.549 
    2258 8.5562906e-07   -796.53593            0   -796.53593    13995.548 
    2259 1.0327325e-06   -796.53593            0   -796.53593    13995.547 
    2260 1.2259147e-06   -796.53593            0   -796.53593    13995.545 
    2261 1.4349191e-06   -796.53593            0   -796.53593    13995.544 
    2262 1.6595028e-06   -796.53593            0   -796.53593    13995.542 
    2263 1.8994037e-06   -796.53592            0   -796.53592     13995.54 
    2264 2.1543403e-06   -796.53592            0   -796.53592    13995.538 
    2265 2.4240121e-06   -796.53592            0   -796.53592    13995.536 
    2266 2.7080998e-06   -796.53592            0   -796.53592    13995.534 
    2267 3.0062659e-06   -796.53592            0   -796.53592    13995.531 
    2268 3.3181546e-06   -796.53592            0   -796.53592    13995.529 
    2269 3.6433926e-06   -796.53592            0   -796.53592    13995.526 
    2270 3.9815893e-06   -796.53592            0   -796.53592    13995.523 
    2271 4.3323371e-06   -796.53592            0   -796.53592     13995.52 
    2272 4.6952116e-06   -796.53592            0   -796.53592    13995.517 
    2273 5.0697728e-06   -796.53592            0   -796.53592    13995.514 
    2274 5.4555645e-06   -796.53592            0   -796.53592    13995.511 
    2275 5.8521154e-06   -796.53592            0   -796.53592    13995.507 
    2276 6.2589385e-06   -796.53591            0   -796.53591    13995.503 
    2277 6.6755331e-06   -796.53591            0   -796.53591      13995.5 
    2278 7.1013696e-06   -796.53591            0   -796.53591    13995.496 
    2279 7.5358475e-06   -796.53591            0   -796.53591    13995.491 
    2280 7.9776395e-06   -796.53591            0   -796.53591    13995.487 
    2281 8.4187817e-06   -796.53591            0   -796.53591    13995.483 
    2282 8.7750475e-06   -796.53591            0   -796.53591    13995.478 
    2283 8.1227921e-06   -796.53591            0   -796.53591    13995.474 
    2284 2.5004459e-06   -796.53591            0   -796.53591    13995.472 
    2285 5.927726e-08   -796.53591            0   -796.53591    13995.471 
    2286 1.090158e-07   -796.53591            0   -796.53591    13995.471 
    2287 1.8208809e-07   -796.53591            0   -796.53591     13995.47 
    2288 2.6023693e-07   -796.53591            0   -796.53591    13995.469 
    2289 3.3819023e-07   -796.53591            0   -796.53591    13995.468 
    2290 4.2289568e-07   -796.53591            0   -796.53591    13995.467 
    2291 5.1656314e-07   -796.53591            0   -796.53591    13995.466 
    2292 6.1926832e-07   -796.53591            0   -796.53591    13995.465 
    2293 7.3088749e-07    -796.5359            0    -796.5359    13995.464 
    2294 8.5128285e-07    -796.5359            0    -796.5359    13995.462 
    2295 9.8030483e-07    -796.5359            0    -796.5359    13995.461 
    2296 1.1177922e-06    -796.5359            0    -796.5359    13995.459 
    2297 1.2635722e-06    -796.5359            0    -796.5359    13995.458 
    2298 1.4174609e-06    -796.5359            0    -796.5359    13995.456 
    2299 1.5792629e-06    -796.5359            0    -796.5359    13995.454 
    2300 1.7487722e-06    -796.5359            0    -796.5359    13995.452 
    2301 1.925772e-06    -796.5359            0    -796.5359     13995.45 
    2302 2.1100349e-06    -796.5359            0    -796.5359    13995.447 
    2303 2.3013233e-06    -796.5359            0    -796.5359    13995.445 
    2304 2.4993895e-06    -796.5359            0    -796.5359    13995.442 
    2305 2.7039761e-06    -796.5359            0    -796.5359     13995.44 
    2306 2.9148162e-06    -796.5359            0    -796.5359    13995.437 
    2307 3.1316336e-06    -796.5359            0    -796.5359    13995.434 
    2308 3.354143e-06    -796.5359            0    -796.5359    13995.431 
    2309 3.5820505e-06    -796.5359            0    -796.5359    13995.428 
    2310 3.8150537e-06    -796.5359            0    -796.5359    13995.425 
    2311 4.0528422e-06    -796.5359            0    -796.5359    13995.421 
    2312 4.2950974e-06    -796.5359            0    -796.5359    13995.418 
    2313 4.541492e-06    -796.5359            0    -796.5359    13995.414 
    2314 4.7916777e-06   -796.53589            0   -796.53589    13995.411 
    2315 5.0451538e-06   -796.53589            0   -796.53589    13995.407 
    2316 5.299532e-06   -796.53589            0   -796.53589    13995.403 
    2317 5.5266965e-06   -796.53589            0   -796.53589    13995.399 
    2318 5.3290594e-06   -796.53589            0   -796.53589    13995.395 
    2319 1.9710732e-06   -796.53589            0   -796.53589    13995.392 
    2320 6.6268853e-09   -796.53589            0   -796.53589    13995.392 
    2321 1.3581536e-08   -796.53589            0   -796.53589    13995.392 
    2322 2.5912507e-08   -796.53589            0   -796.53589    13995.392 
    2323 4.7597332e-08   -796.53589            0   -796.53589    13995.392 
    2324 8.0724998e-08   -796.53589            0   -796.53589    13995.392 
    2325 1.1907223e-07   -796.53589            0   -796.53589    13995.391 
    2326 1.5793936e-07   -796.53589            0   -796.53589     13995.39 
    2327 1.9974209e-07   -796.53589            0   -796.53589     13995.39 
    2328 2.4601922e-07   -796.53589            0   -796.53589    13995.389 
    2329 2.9694093e-07   -796.53589            0   -796.53589    13995.388 
    2330 3.5245006e-07   -796.53589            0   -796.53589    13995.387 
    2331 4.124741e-07   -796.53589            0   -796.53589    13995.386 
    2332 4.7693408e-07   -796.53589            0   -796.53589    13995.385 
    2333 5.457447e-07   -796.53589            0   -796.53589    13995.384 
    2334 6.1881439e-07   -796.53589            0   -796.53589    13995.382 
    2335 6.9604542e-07   -796.53589            0   -796.53589    13995.381 
    2336 7.7733403e-07   -796.53589            0   -796.53589    13995.379 
    2337 8.6257049e-07   -796.53589            0   -796.53589    13995.378 
    2338 9.5163927e-07   -796.53589            0   -796.53589    13995.376 
    2339 1.0444192e-06   -796.53589            0   -796.53589    13995.374 
    2340 1.1407834e-06   -796.53589            0   -796.53589    13995.372 
    2341 1.2405998e-06   -796.53589            0   -796.53589    13995.371 
    2342 1.3437309e-06   -796.53589            0   -796.53589    13995.369 
    2343 1.4500342e-06   -796.53589            0   -796.53589    13995.366 
    2344 1.5593622e-06   -796.53589            0   -796.53589    13995.364 
    2345 1.6715625e-06   -796.53589            0   -796.53589    13995.362 
    2346 1.7864783e-06   -796.53589            0   -796.53589     13995.36 
    2347 1.9039481e-06   -796.53589            0   -796.53589    13995.357 
    2348 2.0238065e-06   -796.53589            0   -796.53589    13995.355 
    2349 2.1458833e-06   -796.53589            0   -796.53589    13995.352 
    2350 2.270006e-06   -796.53589            0   -796.53589    13995.349 
    2351 2.3959942e-06   -796.53589            0   -796.53589    13995.347 
    2352 2.5236758e-06   -796.53589            0   -796.53588    13995.344 
    2353 2.6528397e-06   -796.53588            0   -796.53588    13995.341 
    2354 2.7833831e-06   -796.53588            0   -796.53588    13995.338 
    2355 2.9147998e-06   -796.53588            0   -796.53588    13995.335 
    2356 3.0476054e-06   -796.53588            0   -796.53588    13995.332 
    2357 3.1713437e-06   -796.53588            0   -796.53588    13995.328 
    2358 3.1860491e-06   -796.53588            0   -796.53588    13995.325 
    2359 1.680266e-06   -796.53588            0   -796.53588    13995.323 
    2360 1.063383e-09   -796.53588            0   -796.53588    13995.323 
    2361 4.1065773e-09   -796.53588            0   -796.53588    13995.323 
    2362 9.4596398e-09   -796.53588            0   -796.53588    13995.323 
    2363 1.7131148e-08   -796.53588            0   -796.53588    13995.323 
    2364 2.7186073e-08   -796.53588            0   -796.53588    13995.322 
    2365 3.9545962e-08   -796.53588            0   -796.53588    13995.322 
    2366 5.3240067e-08   -796.53588            0   -796.53588    13995.322 
    2367 6.8103183e-08   -796.53588            0   -796.53588    13995.322 
    2368 8.5883527e-08   -796.53588            0   -796.53588    13995.321 
    2369 1.0646706e-07   -796.53588            0   -796.53588    13995.321 
    2370 1.2935328e-07   -796.53588            0   -796.53588     13995.32 
    2371 1.5439574e-07   -796.53588            0   -796.53588    13995.319 
    2372 1.8154528e-07   -796.53588            0   -796.53588    13995.319 
    2373 2.1076262e-07   -796.53588            0   -796.53588    13995.318 
    2374 2.4200722e-07   -796.53588            0   -796.53588    13995.317 
    2375 2.7523549e-07   -796.53588            0   -796.53588    13995.316 
    2376 3.1040086e-07   -796.53588            0   -796.53588    13995.315 
    2377 3.474538e-07   -796.53588            0   -796.53588    13995.314 
    2378 3.8634194e-07   -796.53588            0   -796.53588    13995.313 
    2379 4.2701006e-07   -796.53588            0   -796.53588    13995.312 
    2380 4.6940019e-07   -796.53588            0   -796.53588     13995.31 
    2381 5.134517e-07   -796.53588            0   -796.53588    13995.309 
    2382 5.5910135e-07   -796.53588            0   -796.53588    13995.308 
    2383 6.0628336e-07   -796.53588            0   -796.53588    13995.306 
    2384 6.5492953e-07   -796.53588            0   -796.53588    13995.305 
    2385 7.0496928e-07   -796.53588            0   -796.53588    13995.303 
    2386 7.5632978e-07   -796.53588            0   -796.53588    13995.302 
    2387 8.0893595e-07   -796.53588            0   -796.53588      13995.3 
    2388 8.6271079e-07   -796.53588            0   -796.53588    13995.298 
    2389 9.1757495e-07   -796.53588            0   -796.53588    13995.296 
    2390 9.7344792e-07   -796.53588            0   -796.53588    13995.295 
    2391 1.0302457e-06   -796.53588            0   -796.53588    13995.293 
    2392 1.0878868e-06   -796.53588            0   -796.53588    13995.291 
    2393 1.1462751e-06   -796.53588            0   -796.53588    13995.289 
    2394  1.20534e-06   -796.53588            0   -796.53588    13995.287 
    2395 1.2647752e-06   -796.53588            0   -796.53588    13995.285 
    2396 1.3231408e-06   -796.53588            0   -796.53588    13995.282 
    2397 1.3554678e-06   -796.53588            0   -796.53588    13995.281 
    2398 1.0682166e-06   -796.53588            0   -796.53588    13995.277 
    2399 8.4731322e-08   -796.53588            0   -796.53588    13995.278 
    2400 7.0032117e-08   -796.53588            0   -796.53588    13995.277 
    2401 8.3292207e-08   -796.53588            0   -796.53588    13995.277 
    2402 9.7732871e-08   -796.53588            0   -796.53588    13995.276 
    2403 1.1325502e-07   -796.53588            0   -796.53588    13995.276 
    2404 1.2983684e-07   -796.53588            0   -796.53588    13995.275 
    2405 1.4745426e-07   -796.53588            0   -796.53588    13995.274 
    2406 1.6608191e-07   -796.53588            0   -796.53588    13995.274 
    2407 1.8569277e-07   -796.53588            0   -796.53588    13995.273 
    2408 2.062583e-07   -796.53588            0   -796.53588    13995.272 
    2409 2.2774846e-07   -796.53588            0   -796.53588    13995.271 
    2410 2.5013176e-07   -796.53588            0   -796.53588     13995.27 
    2411 2.7337525e-07   -796.53588            0   -796.53588    13995.269 
    2412 2.9744465e-07   -796.53588            0   -796.53588    13995.268 
    2413 3.2230431e-07   -796.53588            0   -796.53588    13995.267 
    2414 3.4791729e-07   -796.53588            0   -796.53588    13995.266 
    2415 3.7424548e-07   -796.53588            0   -796.53588    13995.265 
    2416 4.0124926e-07   -796.53588            0   -796.53588    13995.264 
    2417 4.2888825e-07   -796.53588            0   -796.53588    13995.262 
    2418 4.5711745e-07   -796.53588            0   -796.53588    13995.261 
    2419 4.8588482e-07   -796.53588            0   -796.53588     13995.26 
    2420 5.1505003e-07   -796.53588            0   -796.53588    13995.258 
    2421 5.4393599e-07   -796.53588            0   -796.53588    13995.257 
    2422 5.6688497e-07   -796.53588            0   -796.53588    13995.256 
    2423 5.3722852e-07   -796.53588            0   -796.53588    13995.254 
    2424 2.4901127e-07   -796.53588            0   -796.53588    13995.254 
    2425 1.6727784e-08   -796.53588            0   -796.53588    13995.253 
    2426 2.8776244e-08   -796.53588            0   -796.53588    13995.253 
    2427 3.6445419e-08   -796.53588            0   -796.53588    13995.252 
    2428 4.4006103e-08   -796.53588            0   -796.53588    13995.252 
    2429 5.2245044e-08   -796.53588            0   -796.53588    13995.251 
    2430 6.1151421e-08   -796.53588            0   -796.53588    13995.251 
    2431 7.071242e-08   -796.53588            0   -796.53588     13995.25 
    2432 8.0914127e-08   -796.53588            0   -796.53588     13995.25 
    2433 9.174163e-08   -796.53588            0   -796.53588    13995.249 
    2434 1.0317903e-07   -796.53588            0   -796.53588    13995.249 
    2435 1.1520946e-07   -796.53588            0   -796.53588    13995.248 
    2436 1.2781512e-07   -796.53588            0   -796.53588    13995.247 
    2437 1.4097728e-07   -796.53588            0   -796.53588    13995.247 
    2438 1.5467633e-07   -796.53588            0   -796.53588    13995.246 
    2439 1.6889178e-07   -796.53588            0   -796.53588    13995.245 
    2440 1.8360233e-07   -796.53587            0   -796.53587    13995.244 
    2441 1.9878584e-07   -796.53587            0   -796.53587    13995.244 
    2442 2.1441942e-07   -796.53587            0   -796.53587    13995.243 
    2443 2.304794e-07   -796.53587            0   -796.53587    13995.242 
    2444 2.4694143e-07   -796.53587            0   -796.53587    13995.241 
    2445 2.6378046e-07   -796.53587            0   -796.53587     13995.24 
    2446 2.8097082e-07   -796.53587            0   -796.53587    13995.239 
    2447 2.9848613e-07   -796.53587            0   -796.53587    13995.238 
    2448 3.1629969e-07   -796.53587            0   -796.53587    13995.237 
    2449 3.3438307e-07   -796.53587            0   -796.53587    13995.236 
    2450 3.5270765e-07   -796.53587            0   -796.53587    13995.234 
    2451 3.7121068e-07   -796.53587            0   -796.53587    13995.233 
    2452 3.8959651e-07   -796.53587            0   -796.53587    13995.232 
    2453 4.0435215e-07   -796.53587            0   -796.53587    13995.231 
    2454 3.7583088e-07   -796.53587            0   -796.53587    13995.229 
    2455 1.177531e-07   -796.53587            0   -796.53587    13995.229 
    2456 2.0097531e-09   -796.53587            0   -796.53587    13995.229 
    2457 3.6434741e-09   -796.53587            0   -796.53587    13995.229 
    2458 6.2054226e-09   -796.53587            0   -796.53587    13995.229 
    2459 9.3113262e-09   -796.53587            0   -796.53587    13995.228 
    2460 1.2461154e-08   -796.53587            0   -796.53587    13995.228 
    2461 1.5802582e-08   -796.53587            0   -796.53587    13995.228 
    2462 1.9491955e-08   -796.53587            0   -796.53587    13995.228 
    2463 2.3552247e-08   -796.53587            0   -796.53587    13995.227 
    2464 2.7978756e-08   -796.53587            0   -796.53587    13995.227 
    2465 3.2764962e-08   -796.53587            0   -796.53587    13995.227 
    2466 3.7903834e-08   -796.53587            0   -796.53587    13995.226 
    2467 4.338778e-08   -796.53587            0   -796.53587    13995.226 
    2468 4.9208658e-08   -796.53587            0   -796.53587    13995.226 
    2469 5.5357789e-08   -796.53587            0   -796.53587    13995.225 
    2470 6.1825967e-08   -796.53587            0   -796.53587    13995.225 
    2471 6.8603474e-08   -796.53587            0   -796.53587    13995.224 
    2472 7.5680093e-08   -796.53587            0   -796.53587    13995.224 
    2473 8.3045123e-08   -796.53587            0   -796.53587    13995.223 
    2474 9.0687392e-08   -796.53587            0   -796.53587    13995.223 
    2475 9.8595277e-08   -796.53587            0   -796.53587    13995.222 
    2476 1.0675671e-07   -796.53587            0   -796.53587    13995.221 
    2477 1.1515922e-07   -796.53587            0   -796.53587    13995.221 
    2478 1.2378992e-07   -796.53587            0   -796.53587     13995.22 
    2479 1.3263553e-07   -796.53587            0   -796.53587    13995.219 
    2480 1.4168242e-07   -796.53587            0   -796.53587    13995.219 
    2481 1.5091663e-07   -796.53587            0   -796.53587    13995.218 
    2482 1.6032382e-07   -796.53587            0   -796.53587    13995.217 
    2483 1.6988946e-07   -796.53587            0   -796.53587    13995.216 
    2484 1.7959845e-07   -796.53587            0   -796.53587    13995.215 
    2485 1.8943618e-07   -796.53587            0   -796.53587    13995.215 
    2486 1.9938562e-07   -796.53587            0   -796.53587    13995.214 
    2487 2.0943561e-07   -796.53587            0   -796.53587    13995.213 
    2488 2.1954883e-07   -796.53587            0   -796.53587    13995.212 
    2489 2.2969554e-07   -796.53587            0   -796.53587    13995.211 
    2490 2.3866649e-07   -796.53587            0   -796.53587     13995.21 
    2491 2.3250708e-07   -796.53587            0   -796.53587    13995.209 
    2492 9.6212315e-08   -796.53587            0   -796.53587    13995.209 
    2493 2.564636e-10   -796.53587            0   -796.53587    13995.209 
Loop time of 357.296 on 16 procs for 653 steps with 127 atoms

99.2% CPU use with 16 MPI tasks x no OpenMP threads

Minimization stats:
  Stopping criterion = energy tolerance
  Energy initial, next-to-last, final = 
        -796.582316259     -796.535872258     -796.535872257
  Force two-norm initial, final = 1.15435e-06 5.13506e-05
  Force max component initial, final = 8.98287e-07 1.60313e-05
  Final line search alpha, max atom move = 0 0
  Iterations, force evaluations = 653 653

MPI task timing breakdown:
Section |  min time  |  avg time  |  max time  |%varavg| %total
---------------------------------------------------------------
Pair    | 140.31     | 159.32     | 166.6      |  47.3 | 44.59
Neigh   | 0          | 0          | 0          |   0.0 |  0.00
Comm    | 0.37833    | 7.6521     | 26.672     | 215.7 |  2.14
Output  | 0.099464   | 0.099994   | 0.10097    |   0.1 |  0.03
Modify  | 187.74     | 187.74     | 187.74     |   0.0 | 52.54
Other   |            | 2.481      |            |       |  0.69

Nlocal:    7.9375 ave 8 max 7 min
Histogram: 1 0 0 0 0 0 0 0 0 15
Nghost:    819.812 ave 824 max 816 min
Histogram: 4 0 0 0 0 7 1 2 0 2
Neighs:    0 ave 0 max 0 min
Histogram: 16 0 0 0 0 0 0 0 0 0
FullNghs:  1600.88 ave 1618 max 1415 min
Histogram: 1 0 0 0 0 0 0 0 0 15

Total # of neighbors = 25614
Ave neighs/atom = 201.685
Neighbor list builds = 0
Dangerous builds = 0
Total wall time: 0:22:55
