LAMMPS (12 Dec 2018)
Processor partition = 3
Reading data file ...
  orthogonal box = (0 0 0) to (10.0025 12.3537 10.615)
  2 by 4 by 2 MPI processor grid
  reading atoms ...
  127 atoms
Reading potential file lammps-force.nnp with DATE: 20201105
Neighbor list info ...
  update every 1 steps, delay 0 steps, check yes
  max neighbors/atom: 2000, page size: 100000
  master list distance cutoff = 8
  ghost atom cutoff = 8
  binsize = 4, bins = 3 4 3
  1 neighbor lists, perpetual/occasional/extra = 1 0 0
  (1) pair nnp3v, perpetual
      attributes: full, newton on
      pair build: full/bin/atomonly
      stencil: full/bin/3d
      bin: standard
Setting up quickmin style minimization ...
  Unit style    : metal
  Current step  : 0
Per MPI rank memory allocation (min/avg/max) = 2.736 | 2.736 | 2.736 Mbytes
Step Temp E_pair E_mol TotEng Press 
       0            0   -796.68047            0   -796.68047     13401.66 
       6  0.092325754   -796.68154            0   -796.68004    13408.421 
Loop time of 1.96689 on 16 procs for 6 steps with 127 atoms

98.2% CPU use with 16 MPI tasks x no OpenMP threads

Minimization stats:
  Stopping criterion = energy tolerance
  Energy initial, next-to-last, final = 
        -796.680469343     -796.681189813     -796.681544239
  Force two-norm initial, final = 0.292034 0.283352
  Force max component initial, final = 0.0445202 0.0435203
  Final line search alpha, max atom move = 0 0
  Iterations, force evaluations = 6 6

MPI task timing breakdown:
Section |  min time  |  avg time  |  max time  |%varavg| %total
---------------------------------------------------------------
Pair    | 1.5823     | 1.8445     | 1.9659     |   6.3 | 93.78
Neigh   | 0          | 0          | 0          |   0.0 |  0.00
Comm    | 0.00048709 | 0.12188    | 0.38405    |  24.5 |  6.20
Output  | 0          | 0          | 0          |   0.0 |  0.00
Modify  | 0          | 0          | 0          |   0.0 |  0.00
Other   |            | 0.0005071  |            |       |  0.03

Nlocal:    7.9375 ave 8 max 7 min
Histogram: 1 0 0 0 0 0 0 0 0 15
Nghost:    819.812 ave 824 max 816 min
Histogram: 4 0 0 0 0 8 0 1 1 2
Neighs:    0 ave 0 max 0 min
Histogram: 16 0 0 0 0 0 0 0 0 0
FullNghs:  1602 ave 1623 max 1420 min
Histogram: 1 0 0 0 0 0 0 0 1 14

Total # of neighbors = 25632
Ave neighs/atom = 201.827
Neighbor list builds = 0
Dangerous builds = 0
Setting up quickmin style minimization ...
  Unit style    : metal
  Current step  : 0
Per MPI rank memory allocation (min/avg/max) = 4.736 | 4.737 | 4.737 Mbytes
Step Temp E_pair E_mol TotEng Press 
       0            0   -794.41127            0   -794.41127    16599.319 
       1    5.3563446   -794.41127            0   -794.32404    16670.358 
       2    21.203345   -794.56791            0   -794.22257    16741.936 
       3    44.965371   -794.83605            0   -794.10371    16843.594 
       4    69.447895    -795.1372            0   -794.00612    16974.677 
       5    88.393822   -795.40524            0   -793.96559    17077.385 
       6    99.063311   -795.61173            0   -793.99831    17014.207 
       7    97.002644    -795.7576            0   -794.17774    16596.905 
       8    86.599974   -795.85734            0    -794.4469    15936.415 
       9    80.501968   -795.92528            0   -794.61416    15441.701 
      10    72.159723   -795.97107            0   -794.79582    15172.701 
      11    63.273073   -796.00159            0   -794.97107    14963.288 
      12    67.910706   -796.01332            0   -794.90728    15083.422 
      13    9.3899136   -796.02385            0   -795.87092    14251.753 
      14    3.2726009   -796.02795            0   -795.97465    14162.248 
      15    2.0657833   -796.03146            0   -795.99781     14149.06 
      16    2.3025634   -796.03508            0   -795.99757    14151.881 
      17    2.6034898    -796.0388            0    -795.9964    14157.164 
      18    2.9158304    -796.0426            0   -795.99511    14162.171 
      19    3.2403818   -796.04645            0   -795.99368    14168.105 
      20    3.5729864   -796.05034            0   -795.99215    14173.959 
      21     3.914088   -796.05424            0   -795.99049    14180.577 
      22    4.2596946   -796.05813            0   -795.98875    14186.838 
      23    4.6113477     -796.062            0    -795.9869    14194.065 
      24    4.9616227   -796.06583            0   -795.98502    14199.898 
      25    5.3216114    -796.0696            0   -795.98293    14208.394 
      26     5.674224   -796.07328            0   -795.98087    14210.859 
      27    6.1688551   -796.07676            0   -795.97629    14229.141 
      28    7.0802355   -796.07937            0   -795.96406    14217.837 
      29    5.8197241   -796.08102            0   -795.98624    14236.304 
      30   0.62209726   -796.08206            0   -796.07193    14155.058 
      31   0.34941546   -796.08276            0   -796.07707    14146.711 
      32   0.32052696   -796.08346            0   -796.07824    14145.726 
      33   0.37499938   -796.08421            0    -796.0781    14146.696 
      34    0.4371974   -796.08501            0   -796.07789    14147.757 
      35   0.50326993   -796.08586            0   -796.07766    14148.783 
      36    0.5730249   -796.08676            0   -796.07742    14149.799 
      37   0.64620353    -796.0877            0   -796.07717    14150.813 
      38    0.7225344   -796.08868            0   -796.07691     14151.82 
      39   0.80173283   -796.08969            0   -796.07664    14152.817 
      40   0.88350457   -796.09074            0   -796.07635    14153.797 
      41   0.96754321   -796.09181            0   -796.07605     14154.75 
      42     1.053535   -796.09291            0   -796.07575    14155.662 
      43    1.1411597   -796.09402            0   -796.07544    14156.523 
      44     1.230094   -796.09515            0   -796.07512    14157.323 
      45    1.3200074    -796.0963            0    -796.0748     14158.05 
      46    1.4105703   -796.09744            0   -796.07447    14158.691 
      47    1.5014528   -796.09859            0   -796.07414    14159.234 
      48    1.5923264   -796.09974            0   -796.07381    14159.666 
      49    1.6828629   -796.10089            0   -796.07348    14159.967 
      50    1.7727389   -796.10202            0   -796.07315    14160.136 
      51    1.8616368   -796.10314            0   -796.07282    14160.155 
      52    1.9492583   -796.10425            0    -796.0725    14160.017 
      53    2.0352664   -796.10534            0   -796.07219    14159.707 
      54    2.1194638    -796.1064            0   -796.07188     14159.22 
      55    2.2011205   -796.10744            0   -796.07159    14158.501 
      56    2.2802446   -796.10846            0   -796.07132    14157.718 
      57    2.3310028   -796.10943            0   -796.07147    14155.759 
      58    2.0312633   -796.11027            0   -796.07718    14152.022 
      59   0.19642486   -796.11049            0   -796.10729    14124.468 
      60  0.031320156   -796.11059            0   -796.11008    14122.497 
      61  0.040202508    -796.1107            0   -796.11004    14122.537 
      62  0.049221104   -796.11082            0   -796.11001    14122.389 
      63   0.05904196   -796.11095            0   -796.10999    14122.161 
      64  0.069710398   -796.11109            0   -796.10996    14121.892 
      65   0.08117605   -796.11124            0   -796.10992    14121.592 
      66  0.093398843   -796.11141            0   -796.10989    14121.261 
      67    0.1063438   -796.11158            0   -796.10985    14120.895 
      68    0.1199752   -796.11177            0   -796.10981    14120.496 
      69   0.13425549   -796.11196            0   -796.10977    14120.062 
      70   0.14914529   -796.11216            0   -796.10973    14119.592 
      71   0.16460355   -796.11237            0   -796.10969    14119.084 
      72   0.18058779   -796.11259            0   -796.10964    14118.534 
      73   0.19705405   -796.11281            0    -796.1096    14117.942 
      74   0.21395732   -796.11304            0   -796.10955    14117.305 
      75   0.23125171   -796.11327            0   -796.10951    14116.623 
      76    0.2488899   -796.11351            0   -796.10946    14115.893 
      77   0.26682426   -796.11376            0   -796.10941    14115.115 
      78    0.2850062     -796.114            0   -796.10936    14114.287 
      79   0.30338708   -796.11425            0   -796.10931    14113.397 
      80   0.32191514   -796.11451            0   -796.10926     14112.45 
      81   0.34054227   -796.11476            0   -796.10921    14111.446 
      82   0.35922143   -796.11502            0   -796.10917    14110.384 
      83    0.3778999   -796.11527            0   -796.10912    14109.259 
      84   0.39653308   -796.11553            0   -796.10907    14108.069 
      85   0.41506635   -796.11578            0   -796.10902    14106.809 
      86   0.43346093   -796.11604            0   -796.10898    14105.485 
      87   0.45166923   -796.11629            0   -796.10893    14104.084 
      88   0.46959617   -796.11654            0   -796.10889    14102.643 
      89   0.48749334   -796.11678            0   -796.10884     14101.04 
      90   0.50418666   -796.11703            0   -796.10881    14099.648 
      91   0.52791767   -796.11726            0   -796.10866    14097.301 
      92   0.54992039   -796.11741            0   -796.10845    14098.254 
      93     0.140056   -796.11751            0   -796.11523    14090.729 
      94  0.020556485   -796.11755            0   -796.11722    14088.588 
      95  0.023414785    -796.1176            0   -796.11722    14088.266 
      96  0.026987916   -796.11765            0   -796.11721    14087.883 
      97  0.030781968    -796.1177            0    -796.1172    14087.465 
      98  0.034788209   -796.11775            0   -796.11719    14087.013 
      99  0.039000175   -796.11781            0   -796.11717    14086.529 
     100  0.043408421   -796.11787            0   -796.11716    14086.013 
     101  0.048003574   -796.11793            0   -796.11715    14085.465 
     102  0.052775603   -796.11799            0   -796.11714    14084.885 
     103  0.057714318   -796.11806            0   -796.11712    14084.273 
     104  0.062809035   -796.11813            0   -796.11711    14083.628 
     105  0.068048919    -796.1182            0   -796.11709    14082.951 
     106   0.07342275   -796.11827            0   -796.11708    14082.241 
     107  0.078919248   -796.11835            0   -796.11706    14081.498 
     108  0.084526709   -796.11842            0   -796.11705    14080.723 
     109  0.090233621    -796.1185            0   -796.11703    14079.912 
     110  0.096028172   -796.11858            0   -796.11701    14079.067 
     111   0.10189893   -796.11866            0     -796.117    14078.187 
     112   0.10783275   -796.11874            0   -796.11698    14077.273 
     113   0.11381988   -796.11882            0   -796.11696    14076.325 
     114   0.11984367    -796.1189            0   -796.11695    14075.341 
     115   0.12590278   -796.11898            0   -796.11693    14074.328 
     116   0.13195886   -796.11906            0   -796.11691    14073.267 
     117   0.13807038   -796.11914            0   -796.11689    14072.208 
     118   0.14402074   -796.11922            0   -796.11687    14071.008 
     119   0.15037118    -796.1193            0   -796.11685    14070.096 
     120   0.15481798   -796.11938            0   -796.11685    14068.121 
     121   0.15819638   -796.11944            0   -796.11686    14069.452 
     122  0.074265951   -796.11947            0   -796.11826    14064.304 
     123 0.0042190691   -796.11948            0   -796.11941    14063.959 
     124 0.0043089333   -796.11949            0   -796.11942    14064.332 
     125 0.0045178268   -796.11951            0   -796.11943    14064.414 
     126 0.0052953285   -796.11952            0   -796.11943    14064.301 
     127 0.0063787118   -796.11953            0   -796.11943    14064.095 
     128 0.0076023742   -796.11955            0   -796.11942    14063.845 
     129 0.0089323767   -796.11956            0   -796.11942    14063.569 
     130  0.010361988   -796.11958            0   -796.11941    14063.269 
     131  0.011888043    -796.1196            0   -796.11941    14062.946 
     132  0.013507793   -796.11962            0    -796.1194    14062.599 
     133   0.01521835   -796.11964            0   -796.11939    14062.228 
     134  0.017016662   -796.11966            0   -796.11938    14061.834 
     135  0.018899526   -796.11968            0   -796.11938    14061.417 
     136  0.020863595   -796.11971            0   -796.11937    14060.977 
     137  0.022905388   -796.11973            0   -796.11936    14060.514 
     138  0.025021294   -796.11976            0   -796.11935    14060.027 
     139  0.027207592   -796.11978            0   -796.11934    14059.518 
     140  0.029460451   -796.11981            0   -796.11933    14058.986 
     141   0.03177594   -796.11984            0   -796.11932     14058.43 
     142  0.034150063   -796.11986            0   -796.11931    14057.851 
     143  0.036578772   -796.11989            0    -796.1193     14057.25 
     144  0.039057844   -796.11992            0   -796.11929    14056.626 
     145  0.041583123   -796.11995            0   -796.11927     14055.98 
     146  0.044150261   -796.11998            0   -796.11926    14055.311 
     147  0.046755099   -796.12001            0   -796.11925     14054.62 
     148  0.049393192   -796.12004            0   -796.11923    14053.908 
     149  0.052060394   -796.12007            0   -796.11922    14053.173 
     150  0.054752061    -796.1201            0    -796.1192    14052.417 
     151  0.057464563   -796.12012            0   -796.11919    14051.641 
     152  0.060192104   -796.12015            0   -796.11917    14050.842 
     153  0.062934197   -796.12018            0   -796.11916    14050.028 
     154  0.065675839   -796.12021            0   -796.11914    14049.175 
     155  0.068441784   -796.12023            0   -796.11912    14048.354 
     156  0.071107397   -796.12026            0    -796.1191    14047.345 
     157   0.07376635   -796.12029            0   -796.11908    14046.885 
     158  0.072369293   -796.12031            0   -796.11913    14044.507 
     159  0.041117781   -796.12032            0   -796.11965    14046.357 
     160 0.00076830939   -796.12032            0   -796.12031      14045.4 
     161  0.001056295   -796.12032            0    -796.1203    14044.921 
     162 0.0012936766   -796.12032            0    -796.1203    14044.454 
     163 0.0015053914   -796.12033            0    -796.1203    14044.081 
     164 0.0018048833   -796.12033            0    -796.1203     14043.82 
     165 0.0022165357   -796.12033            0    -796.1203    14043.626 
     166 0.0026974149   -796.12034            0   -796.12029    14043.451 
     167 0.0032268026   -796.12034            0   -796.12029    14043.271 
     168 0.0038008753   -796.12035            0   -796.12028    14043.076 
     169 0.0044188568   -796.12035            0   -796.12028    14042.864 
     170 0.0050799027   -796.12036            0   -796.12027    14042.636 
     171 0.0057830265   -796.12036            0   -796.12027    14042.391 
     172 0.0065271779   -796.12037            0   -796.12026     14042.13 
     173 0.0073112295   -796.12037            0   -796.12025    14041.852 
     174 0.0081340003   -796.12038            0   -796.12025    14041.558 
     175 0.0089942536   -796.12038            0   -796.12024    14041.249 
     176 0.0098907023   -796.12039            0   -796.12023    14040.923 
     177  0.010821999    -796.1204            0   -796.12022    14040.582 
     178  0.011786751    -796.1204            0   -796.12021    14040.224 
     179  0.012783536   -796.12041            0    -796.1202    14039.852 
     180   0.01381086   -796.12042            0   -796.12019    14039.463 
     181  0.014867202   -796.12042            0   -796.12018    14039.059 
     182  0.015951017   -796.12043            0   -796.12017     14038.64 
     183  0.017060697   -796.12043            0   -796.12016    14038.205 
     184  0.018194632   -796.12044            0   -796.12014    14037.756 
     185  0.019351145   -796.12045            0   -796.12013     14037.29 
     186  0.020528491   -796.12045            0   -796.12012    14036.809 
     187  0.021725023   -796.12046            0    -796.1201    14036.314 
     188  0.022939122   -796.12046            0   -796.12009    14035.804 
     189  0.024168947   -796.12047            0   -796.12007    14035.279 
     190   0.02541286   -796.12047            0   -796.12006     14034.74 
     191  0.026669132   -796.12047            0   -796.12004    14034.189 
     192  0.027935439   -796.12048            0   -796.12002    14033.621 
     193  0.029212934   -796.12048            0      -796.12    14033.045 
     194  0.030489725   -796.12048            0   -796.11999    14032.441 
     195  0.031810692   -796.12048            0   -796.11996    14031.871 
     196  0.033105139   -796.12048            0   -796.11994    14031.137 
     197  0.035680125   -796.12048            0    -796.1199    14030.941 
     198  0.040567041   -796.12048            0   -796.11982    14029.355 
     199 0.0076966456   -796.12048            0   -796.12036    14029.453 
     200 0.0025289063   -796.12048            0   -796.12044    14029.427 
     201 0.0022104135   -796.12048            0   -796.12044    14029.255 
     202 0.0025439126   -796.12048            0   -796.12044    14029.093 
     203 0.0028969727   -796.12048            0   -796.12043    14028.917 
     204 0.0032713927   -796.12048            0   -796.12042    14028.729 
     205  0.003666119   -796.12048            0   -796.12042    14028.529 
     206 0.0040808025   -796.12048            0   -796.12041    14028.317 
     207 0.0045147919   -796.12047            0    -796.1204    14028.094 
     208 0.0049675508   -796.12047            0   -796.12039    14027.859 
     209 0.0054384308   -796.12047            0   -796.12038    14027.614 
     210 0.0059268243   -796.12047            0   -796.12037    14027.356 
     211 0.0064320425   -796.12047            0   -796.12036    14027.088 
     212 0.0069534338   -796.12046            0   -796.12035    14026.809 
     213 0.0074902627   -796.12046            0   -796.12034    14026.518 
     214 0.0080418494   -796.12046            0   -796.12033    14026.217 
     215 0.0086073906   -796.12046            0   -796.12032    14025.905 
     216 0.0091862298   -796.12045            0    -796.1203    14025.582 
     217 0.0097774321   -796.12045            0   -796.12029    14025.249 
     218  0.010380499   -796.12044            0   -796.12027    14024.906 
     219  0.010994071   -796.12044            0   -796.12026    14024.551 
     220  0.011618422   -796.12043            0   -796.12024    14024.189 
     221  0.012250112   -796.12043            0   -796.12023     14023.81 
     222  0.012892613   -796.12042            0   -796.12021    14023.436 
     223  0.013523285   -796.12041            0   -796.12019    14023.019 
     224  0.014112641    -796.1204            0   -796.12017    14022.678 
     225  0.014071366    -796.1204            0   -796.12017    14022.101 
     226  0.010502924   -796.12039            0   -796.12022    14022.096 
     227 0.0018930211   -796.12039            0   -796.12036     14021.54 
     228 0.0011391718   -796.12038            0   -796.12037    14021.473 
     229 0.0013043394   -796.12038            0   -796.12036    14021.354 
     230 0.0015028296   -796.12038            0   -796.12035    14021.227 
     231 0.0017143103   -796.12038            0   -796.12035    14021.092 
     232 0.0019385956   -796.12037            0   -796.12034    14020.947 
     233 0.0021753738   -796.12037            0   -796.12033    14020.794 
     234 0.0024243479   -796.12036            0   -796.12032    14020.631 
     235  0.002685197   -796.12036            0   -796.12032    14020.459 
     236 0.0029575876   -796.12036            0   -796.12031    14020.279 
     237 0.0032411701   -796.12035            0    -796.1203     14020.09 
     238 0.0035355815   -796.12035            0   -796.12029    14019.892 
     239 0.0038404438   -796.12034            0   -796.12028    14019.685 
     240 0.0041553664   -796.12033            0   -796.12027     14019.47 
     241 0.0044799466   -796.12033            0   -796.12025    14019.246 
     242 0.0048137688   -796.12032            0   -796.12024    14019.014 
     243 0.0051564048   -796.12031            0   -796.12023    14018.773 
     244 0.0055073974   -796.12031            0   -796.12022    14018.523 
     245 0.0058663162    -796.1203            0    -796.1202    14018.266 
     246 0.0062327065   -796.12029            0   -796.12019        14018 
     247 0.0066061124   -796.12028            0   -796.12017    14017.726 
     248 0.0069860225   -796.12027            0   -796.12016    14017.444 
     249 0.0073720024   -796.12026            0   -796.12014    14017.155 
     250 0.0077631265   -796.12025            0   -796.12012    14016.857 
     251 0.0081581028   -796.12024            0   -796.12011    14016.555 
     252 0.0085441982   -796.12023            0   -796.12009    14016.236 
     253 0.0088432999   -796.12021            0   -796.12007    14015.935 
     254 0.0083739419    -796.1202            0   -796.12006    14015.564 
     255 0.0042468672   -796.12019            0   -796.12012    14015.394 
     256 0.00036014761   -796.12019            0   -796.12018    14015.232 
     257 0.00056214358   -796.12019            0   -796.12018    14015.142 
     258 0.00066785434   -796.12018            0   -796.12017    14015.059 
     259 0.00077904876   -796.12018            0   -796.12017    14014.969 
     260 0.0008983119   -796.12018            0   -796.12016    14014.871 
     261 0.0010255027   -796.12017            0   -796.12015    14014.767 
     262 0.0011604623   -796.12017            0   -796.12015    14014.656 
     263 0.0013030264   -796.12016            0   -796.12014    14014.538 
     264 0.0014530201   -796.12015            0   -796.12013    14014.413 
     265 0.0016102594   -796.12015            0   -796.12012    14014.281 
     266  0.001774551   -796.12014            0   -796.12011    14014.142 
     267  0.001945693   -796.12014            0    -796.1201    14013.996 
     268 0.0021234748   -796.12013            0   -796.12009    14013.844 
     269 0.0023076777   -796.12012            0   -796.12008    14013.685 
     270 0.0024980751   -796.12011            0   -796.12007    14013.519 
     271 0.0026944293    -796.1201            0   -796.12006    14013.347 
     272 0.0028965002    -796.1201            0   -796.12005    14013.167 
     273 0.0031040393   -796.12009            0   -796.12004    14012.982 
     274 0.0033167921   -796.12008            0   -796.12002     14012.79 
     275 0.0035344988   -796.12007            0   -796.12001    14012.592 
     276 0.0037568906   -796.12006            0   -796.11999    14012.387 
     277 0.0039837001   -796.12004            0   -796.11998    14012.176 
     278 0.0042146421   -796.12003            0   -796.11996     14011.96 
     279 0.0044494495   -796.12002            0   -796.11995    14011.737 
     280 0.0046878058   -796.12001            0   -796.11993    14011.508 
     281 0.0049294942   -796.11999            0   -796.11991    14011.274 
     282  0.005174017   -796.11998            0    -796.1199    14011.033 
     283 0.0054214879   -796.11997            0   -796.11988    14010.789 
     284 0.0056693109   -796.11995            0   -796.11986    14010.532 
     285 0.0059132303   -796.11994            0   -796.11984    14010.293 
     286 0.0060550524   -796.11992            0   -796.11982    14009.974 
     287 0.0053151472    -796.1199            0   -796.11982    14009.898 
     288 0.0013619221    -796.1199            0   -796.11987    14009.488 
     289 0.00012688456   -796.11989            0   -796.11989      14009.5 
     290 0.00017866246   -796.11989            0   -796.11989    14009.497 
     291 0.00022610231   -796.11989            0   -796.11988    14009.464 
     292 0.00027552602   -796.11988            0   -796.11988    14009.415 
     293 0.00032963742   -796.11988            0   -796.11988    14009.358 
     294 0.00038846256   -796.11988            0   -796.11987    14009.296 
     295 0.00045189208   -796.11987            0   -796.11987    14009.228 
     296 0.00051984441   -796.11987            0   -796.11986    14009.155 
     297 0.00059223982   -796.11986            0   -796.11985    14009.077 
     298 0.00066899344   -796.11986            0   -796.11985    14008.994 
     299 0.00075001505   -796.11985            0   -796.11984    14008.905 
     300 0.00083520924   -796.11984            0   -796.11983    14008.812 
     301 0.0009244755   -796.11984            0   -796.11982    14008.713 
     302 0.0010177084   -796.11983            0   -796.11981    14008.609 
     303 0.0011147977   -796.11982            0    -796.1198    14008.501 
     304 0.0012156285   -796.11981            0   -796.11979    14008.387 
     305 0.0013200814   -796.11981            0   -796.11978    14008.269 
     306 0.0014280328    -796.1198            0   -796.11977    14008.146 
     307 0.0015393547   -796.11979            0   -796.11976    14008.018 
     308 0.0016539154   -796.11978            0   -796.11975    14007.885 
     309 0.0017715792   -796.11977            0   -796.11974    14007.747 
     310 0.0018922069   -796.11976            0   -796.11973    14007.605 
     311 0.0020156556   -796.11974            0   -796.11971    14007.458 
     312 0.0021417792   -796.11973            0    -796.1197    14007.306 
     313 0.0022704293   -796.11972            0   -796.11968    14007.151 
     314 0.0024014541   -796.11971            0   -796.11967     14006.99 
     315 0.0025346994   -796.11969            0   -796.11965    14006.826 
     316 0.0026700086   -796.11968            0   -796.11964    14006.656 
     317 0.0028072224   -796.11967            0   -796.11962    14006.483 
     318 0.0029461812   -796.11965            0    -796.1196    14006.306 
     319  0.003086719   -796.11964            0   -796.11959    14006.124 
     320 0.0032286822   -796.11962            0   -796.11957    14005.939 
     321 0.0033718743    -796.1196            0   -796.11955    14005.749 
     322 0.0035162132   -796.11959            0   -796.11953    14005.557 
     323 0.0036610748   -796.11957            0   -796.11951    14005.357 
     324 0.0038057054   -796.11955            0   -796.11949    14005.166 
     325 0.0039216359   -796.11953            0   -796.11947    14004.926 
     326 0.0036860529   -796.11951            0   -796.11945    14004.859 
     327 0.0011736325    -796.1195            0   -796.11948    14004.478 
     328 6.5739902e-06    -796.1195            0    -796.1195    14004.473 
     329 1.2891843e-05    -796.1195            0    -796.1195    14004.489 
     330 2.2197163e-05    -796.1195            0    -796.1195    14004.507 
     331 3.5262634e-05    -796.1195            0    -796.1195    14004.521 
     332 5.1927908e-05    -796.1195            0    -796.1195    14004.525 
     333 7.073119e-05    -796.1195            0   -796.11949    14004.516 
     334 9.1177453e-05   -796.11949            0   -796.11949    14004.494 
     335 0.00011378929   -796.11949            0   -796.11949    14004.464 
     336 0.00013882133   -796.11949            0   -796.11948    14004.429 
     337 0.00016627788   -796.11948            0   -796.11948     14004.39 
     338 0.00019612126   -796.11948            0   -796.11947    14004.347 
     339 0.00022831491   -796.11947            0   -796.11947      14004.3 
     340 0.00026282223   -796.11947            0   -796.11946     14004.25 
     341 0.0002996045   -796.11946            0   -796.11946    14004.196 
     342 0.0003386203   -796.11946            0   -796.11945    14004.138 
     343 0.0003798256   -796.11945            0   -796.11945    14004.078 
     344 0.00042317375   -796.11944            0   -796.11944    14004.013 
     345 0.00046861565   -796.11944            0   -796.11943    14003.945 
     346 0.00051609969   -796.11943            0   -796.11942    14003.874 
     347 0.00056557187   -796.11942            0   -796.11941    14003.799 
     348 0.00061697591   -796.11941            0    -796.1194    14003.721 
     349 0.00067025331   -796.11941            0    -796.1194    14003.639 
     350 0.0007253434    -796.1194            0   -796.11939    14003.554 
     351 0.00078218338   -796.11939            0   -796.11938    14003.466 
     352 0.0008407085   -796.11938            0   -796.11936    14003.374 
     353 0.00090085211   -796.11937            0   -796.11935    14003.279 
     354 0.00096254574   -796.11936            0   -796.11934    14003.181 
     355 0.0010257191   -796.11935            0   -796.11933     14003.08 
     356 0.0010903005   -796.11933            0   -796.11932    14002.976 
     357 0.0011562163   -796.11932            0    -796.1193    14002.869 
     358 0.0012233914   -796.11931            0   -796.11929    14002.758 
     359 0.0012917501    -796.1193            0   -796.11928    14002.645 
     360 0.0013612148   -796.11928            0   -796.11926    14002.529 
     361 0.0014317071   -796.11927            0   -796.11925    14002.409 
     362 0.0015031474   -796.11926            0   -796.11923    14002.287 
     363 0.0015754547   -796.11924            0   -796.11922    14002.163 
     364 0.0016485486   -796.11923            0    -796.1192    14002.035 
     365 0.0017223431   -796.11921            0   -796.11918    14001.905 
     366 0.0017967541   -796.11919            0   -796.11916    14001.772 
     367 0.0018715479   -796.11918            0   -796.11915    14001.637 
     368 0.0019452439   -796.11916            0   -796.11913    14001.501 
     369 0.0019970433   -796.11914            0   -796.11911    14001.355 
     370 0.0017640859   -796.11912            0    -796.1191    14001.242 
     371 0.00033648665   -796.11912            0   -796.11911    14001.134 
     372 9.6498811e-06   -796.11912            0   -796.11912    14001.127 
     373 1.6638865e-05   -796.11912            0   -796.11911    14001.121 
     374 2.6342728e-05   -796.11911            0   -796.11911     14001.11 
     375 3.7258065e-05   -796.11911            0   -796.11911    14001.095 
     376 4.8521592e-05   -796.11911            0   -796.11911    14001.077 
     377 6.0595656e-05   -796.11911            0    -796.1191    14001.054 
     378 7.3854895e-05    -796.1191            0    -796.1191     14001.03 
     379 8.8375627e-05    -796.1191            0    -796.1191    14001.002 
     380 0.00010415063   -796.11909            0   -796.11909    14000.972 
     381 0.00012116297   -796.11909            0   -796.11909     14000.94 
     382 0.00013939425   -796.11909            0   -796.11908    14000.905 
     383 0.00015882472   -796.11908            0   -796.11908    14000.867 
     384 0.00017943328   -796.11907            0   -796.11907    14000.827 
     385 0.00020119746   -796.11907            0   -796.11907    14000.785 
     386 0.00022409349   -796.11906            0   -796.11906     14000.74 
     387 0.00024809633   -796.11906            0   -796.11905    14000.693 
     388 0.00027317966   -796.11905            0   -796.11905    14000.643 
     389 0.00029931598   -796.11904            0   -796.11904    14000.591 
     390 0.00032647657   -796.11903            0   -796.11903    14000.537 
     391 0.00035463159   -796.11903            0   -796.11902     14000.48 
     392 0.00038375009   -796.11902            0   -796.11901    14000.421 
     393 0.00041380004   -796.11901            0     -796.119     14000.36 
     394 0.00044474839     -796.119            0   -796.11899    14000.296 
     395 0.00047656111   -796.11899            0   -796.11898    14000.231 
     396 0.00050920324   -796.11898            0   -796.11897    14000.163 
     397 0.00054263891   -796.11897            0   -796.11896    14000.093 
     398 0.0005768314   -796.11896            0   -796.11895     14000.02 
     399 0.00061174322   -796.11895            0   -796.11894    13999.946 
     400 0.00064733609   -796.11894            0   -796.11893     13999.87 
     401 0.00068357106   -796.11893            0   -796.11892    13999.791 
     402 0.00072040851   -796.11891            0    -796.1189    13999.711 
     403 0.00075780824    -796.1189            0   -796.11889    13999.629 
     404 0.0007957295   -796.11889            0   -796.11888    13999.544 
     405 0.0008341305   -796.11887            0   -796.11886    13999.458 
     406 0.00087296963   -796.11886            0   -796.11885     13999.37 
     407 0.00091220489   -796.11885            0   -796.11883     13999.28 
     408 0.00095179327   -796.11883            0   -796.11882    13999.188 
     409 0.00099169402   -796.11882            0    -796.1188    13999.095 
     410 0.0010318449    -796.1188            0   -796.11878        13999 
     411 0.0010720706   -796.11878            0   -796.11877    13998.905 
     412 0.0011097984   -796.11877            0   -796.11875      13998.8 
     413 0.0011053613   -796.11875            0   -796.11873     13998.73 
     414 0.00062346988   -796.11874            0   -796.11873    13998.569 
     415 4.9372815e-06   -796.11874            0   -796.11874    13998.571 
     416 8.3007216e-06   -796.11874            0   -796.11874     13998.58 
     417 1.3763413e-05   -796.11874            0   -796.11874    13998.586 
     418 2.085608e-05   -796.11873            0   -796.11873    13998.585 
     419 2.7504352e-05   -796.11873            0   -796.11873    13998.575 
     420 3.405036e-05   -796.11873            0   -796.11873     13998.56 
     421 4.1152654e-05   -796.11872            0   -796.11872    13998.543 
     422 4.8902552e-05   -796.11872            0   -796.11872    13998.523 
     423 5.7295088e-05   -796.11872            0   -796.11872    13998.503 
     424 6.6321412e-05   -796.11871            0   -796.11871     13998.48 
     425 7.5972089e-05   -796.11871            0   -796.11871    13998.456 
     426 8.623702e-05    -796.1187            0    -796.1187     13998.43 
     427 9.710544e-05    -796.1187            0    -796.1187    13998.402 
     428 0.00010856592   -796.11869            0   -796.11869    13998.373 
     429 0.00012060639   -796.11869            0   -796.11869    13998.342 
     430 0.00013321413   -796.11868            0   -796.11868    13998.309 
     431 0.00014637583   -796.11868            0   -796.11867    13998.275 
     432 0.00016007755   -796.11867            0   -796.11867     13998.24 
     433 0.00017430479   -796.11866            0   -796.11866    13998.202 
     434 0.00018904248   -796.11866            0   -796.11865    13998.164 
     435 0.00020427499   -796.11865            0   -796.11864    13998.123 
     436 0.00021998618   -796.11864            0   -796.11864    13998.082 
     437 0.0002361594   -796.11863            0   -796.11863    13998.038 
     438 0.00025277752   -796.11862            0   -796.11862    13997.994 
     439 0.00026982293   -796.11861            0   -796.11861    13997.947 
     440 0.0002872776   -796.11861            0    -796.1186      13997.9 
     441 0.00030512306    -796.1186            0   -796.11859    13997.851 
     442 0.00032334047   -796.11859            0   -796.11858      13997.8 
     443 0.00034191059   -796.11858            0   -796.11857    13997.749 
     444 0.00036081387   -796.11857            0   -796.11856    13997.696 
     445 0.00038003042   -796.11855            0   -796.11855    13997.641 
     446 0.00039954004   -796.11854            0   -796.11854    13997.586 
     447 0.00041932225   -796.11853            0   -796.11852    13997.529 
     448 0.00043935642   -796.11852            0   -796.11851    13997.471 
     449 0.00045962066   -796.11851            0    -796.1185    13997.411 
     450 0.00048008765   -796.11849            0   -796.11849    13997.351 
     451 0.00050064399   -796.11848            0   -796.11847    13997.288 
     452 0.00052012628   -796.11847            0   -796.11846     13997.23 
     453 0.00052253105   -796.11845            0   -796.11845    13997.151 
     454 0.00034334873   -796.11844            0   -796.11844    13997.149 
     455 1.2177315e-05   -796.11844            0   -796.11844    13997.115 
     456 2.081367e-05   -796.11844            0   -796.11844    13997.091 
     457 2.5313426e-05   -796.11844            0   -796.11844    13997.076 
     458 2.9892946e-05   -796.11843            0   -796.11843    13997.062 
     459 3.4855602e-05   -796.11843            0   -796.11843    13997.047 
     460 4.0181158e-05   -796.11843            0   -796.11843     13997.03 
     461 4.5864227e-05   -796.11842            0   -796.11842    13997.013 
     462 5.1899043e-05   -796.11842            0   -796.11842    13996.994 
     463 5.8279467e-05   -796.11841            0   -796.11841    13996.974 
     464 6.4998996e-05   -796.11841            0   -796.11841    13996.953 
     465 7.2050766e-05    -796.1184            0    -796.1184    13996.931 
     466 7.9427563e-05    -796.1184            0    -796.1184    13996.907 
     467 8.7121829e-05   -796.11839            0   -796.11839    13996.883 
     468 9.5125676e-05   -796.11839            0   -796.11838    13996.857 
     469 0.00010343089   -796.11838            0   -796.11838     13996.83 
     470 0.00011202895   -796.11837            0   -796.11837    13996.803 
     471 0.00012091103   -796.11837            0   -796.11836    13996.774 
     472  0.000130068   -796.11836            0   -796.11836    13996.744 
     473 0.00013949046   -796.11835            0   -796.11835    13996.713 
     474 0.00014916875   -796.11834            0   -796.11834    13996.681 
     475 0.00015909293   -796.11834            0   -796.11833    13996.648 
     476 0.00016925281   -796.11833            0   -796.11833    13996.614 
     477 0.00017963794   -796.11832            0   -796.11832     13996.58 
     478 0.00019023788   -796.11831            0   -796.11831    13996.544 
     479 0.00020104146    -796.1183            0    -796.1183    13996.507 
     480 0.0002120383   -796.11829            0   -796.11829    13996.469 
     481 0.00022321567   -796.11828            0   -796.11828    13996.431 
     482 0.00023456334   -796.11827            0   -796.11827    13996.392 
     483 0.00024604932   -796.11826            0   -796.11826    13996.351 
     484 0.00025753435   -796.11825            0   -796.11825    13996.312 
     485 0.00026748102   -796.11824            0   -796.11824    13996.264 
     486 0.00025961601   -796.11823            0   -796.11823    13996.243 
     487 0.00013124228   -796.11822            0   -796.11822    13996.168 
     488 4.5504563e-06   -796.11822            0   -796.11822    13996.176 
     489 7.4301976e-06   -796.11822            0   -796.11822     13996.18 
     490 1.0259786e-05   -796.11822            0   -796.11822    13996.178 
     491 1.2678346e-05   -796.11822            0   -796.11822     13996.17 
     492 1.5267473e-05   -796.11821            0   -796.11821    13996.161 
     493 1.8089939e-05   -796.11821            0   -796.11821    13996.151 
     494 2.1142833e-05   -796.11821            0   -796.11821     13996.14 
     495 2.4423069e-05    -796.1182            0    -796.1182    13996.128 
     496 2.7927397e-05    -796.1182            0    -796.1182    13996.115 
     497 3.165236e-05    -796.1182            0    -796.1182    13996.102 
     498 3.5594275e-05   -796.11819            0   -796.11819    13996.087 
     499 3.9749231e-05   -796.11819            0   -796.11819    13996.072 
     500 4.4113102e-05   -796.11818            0   -796.11818    13996.056 
     501 4.8681544e-05   -796.11818            0   -796.11818    13996.039 
     502 5.3450003e-05   -796.11817            0   -796.11817    13996.021 
     503 5.8413723e-05   -796.11817            0   -796.11817    13996.002 
     504 6.3567747e-05   -796.11816            0   -796.11816    13995.983 
     505 6.8906928e-05   -796.11816            0   -796.11816    13995.963 
     506 7.4425929e-05   -796.11815            0   -796.11815    13995.942 
     507 8.0119236e-05   -796.11815            0   -796.11814     13995.92 
     508 8.5981159e-05   -796.11814            0   -796.11814    13995.898 
     509 9.2005842e-05   -796.11813            0   -796.11813    13995.875 
     510 9.8187271e-05   -796.11813            0   -796.11812    13995.851 
     511 0.00010451928   -796.11812            0   -796.11812    13995.826 
     512 0.00011099555   -796.11811            0   -796.11811    13995.801 
     513 0.00011760963    -796.1181            0    -796.1181    13995.775 
     514 0.00012435494    -796.1181            0   -796.11809    13995.748 
     515 0.00013122481   -796.11809            0   -796.11808    13995.721 
     516 0.00013821233   -796.11808            0   -796.11808    13995.693 
     517 0.0001453108   -796.11807            0   -796.11807    13995.665 
     518 0.00015251254   -796.11806            0   -796.11806    13995.636 
     519 0.00015981212   -796.11805            0   -796.11805    13995.606 
     520 0.0001671923   -796.11804            0   -796.11804    13995.576 
     521 0.00017462879   -796.11803            0   -796.11803    13995.543 
     522 0.0001814984   -796.11802            0   -796.11802    13995.521 
     523 0.00018089653   -796.11801            0   -796.11801    13995.456 
     524 0.0001062556     -796.118            0     -796.118    13995.518 
     525 1.6579261e-06     -796.118            0     -796.118    13995.502 
     526 2.4418312e-06     -796.118            0     -796.118    13995.485 
     527 3.3187727e-06     -796.118            0     -796.118    13995.468 
     528 4.2288259e-06     -796.118            0     -796.118    13995.454 
     529 5.270428e-06     -796.118            0     -796.118    13995.446 
     530 6.5391287e-06     -796.118            0     -796.118    13995.439 
     531 7.9811201e-06     -796.118            0     -796.118    13995.433 
     532 9.5678884e-06   -796.11799            0   -796.11799    13995.426 
     533 1.1294207e-05   -796.11799            0   -796.11799    13995.419 
     534 1.3158184e-05   -796.11799            0   -796.11799    13995.411 
     535 1.5158033e-05   -796.11798            0   -796.11798    13995.403 
     536 1.7291847e-05   -796.11798            0   -796.11798    13995.394 
     537 1.9557579e-05   -796.11798            0   -796.11798    13995.384 
     538 2.1953053e-05   -796.11797            0   -796.11797    13995.374 
     539 2.4475959e-05   -796.11797            0   -796.11797    13995.363 
     540 2.7123862e-05   -796.11797            0   -796.11797    13995.351 
     541 2.9894201e-05   -796.11796            0   -796.11796    13995.339 
     542 3.2784292e-05   -796.11796            0   -796.11796    13995.327 
     543 3.5791333e-05   -796.11795            0   -796.11795    13995.314 
     544 3.8912406e-05   -796.11795            0   -796.11795      13995.3 
     545 4.2144481e-05   -796.11794            0   -796.11794    13995.286 
     546 4.5484419e-05   -796.11794            0   -796.11794    13995.271 
     547 4.8928974e-05   -796.11793            0   -796.11793    13995.256 
     548 5.2474802e-05   -796.11793            0   -796.11793     13995.24 
     549 5.6118457e-05   -796.11792            0   -796.11792    13995.224 
     550 5.9856405e-05   -796.11792            0   -796.11791    13995.207 
     551 6.3685014e-05   -796.11791            0   -796.11791     13995.19 
     552 6.7600579e-05    -796.1179            0    -796.1179    13995.172 
     553 7.1599293e-05    -796.1179            0   -796.11789    13995.154 
     554 7.5677316e-05   -796.11789            0   -796.11789    13995.135 
     555 7.9830624e-05   -796.11788            0   -796.11788    13995.116 
     556 8.405544e-05   -796.11787            0   -796.11787    13995.097 
     557 8.8346949e-05   -796.11787            0   -796.11786    13995.077 
     558 9.2703105e-05   -796.11786            0   -796.11786    13995.056 
     559 9.7109717e-05   -796.11785            0   -796.11785    13995.036 
     560 0.00010156247   -796.11784            0   -796.11784    13995.013 
     561 0.0001056083   -796.11783            0   -796.11783    13995.001 
     562 0.0001048924   -796.11782            0   -796.11782    13994.947 
     563  5.71777e-05   -796.11782            0   -796.11782    13995.006 
     564 6.5377331e-07   -796.11782            0   -796.11782    13994.997 
     565 1.0625813e-06   -796.11782            0   -796.11782    13994.985 
     566 1.5238272e-06   -796.11782            0   -796.11782    13994.973 
     567 1.9950441e-06   -796.11782            0   -796.11782    13994.962 
     568 2.5029359e-06   -796.11782            0   -796.11782    13994.953 
     569  3.14586e-06   -796.11781            0   -796.11781    13994.948 
     570 3.9255498e-06   -796.11781            0   -796.11781    13994.943 
     571 4.8062863e-06   -796.11781            0   -796.11781    13994.939 
     572 5.7758901e-06   -796.11781            0   -796.11781    13994.935 
     573 6.8320119e-06   -796.11781            0   -796.11781     13994.93 
     574 7.9735566e-06    -796.1178            0    -796.1178    13994.924 
     575 9.1994624e-06    -796.1178            0    -796.1178    13994.918 
     576 1.050859e-05    -796.1178            0    -796.1178    13994.912 
     577 1.1899716e-05    -796.1178            0    -796.1178    13994.905 
     578 1.3371538e-05   -796.11779            0   -796.11779    13994.898 
     579 1.4922673e-05   -796.11779            0   -796.11779     13994.89 
     580 1.6551662e-05   -796.11779            0   -796.11779    13994.882 
     581 1.8256968e-05   -796.11778            0   -796.11778    13994.874 
     582 2.0036979e-05   -796.11778            0   -796.11778    13994.865 
     583 2.1890013e-05   -796.11778            0   -796.11778    13994.856 
     584 2.3814315e-05   -796.11777            0   -796.11777    13994.847 
     585 2.5808063e-05   -796.11777            0   -796.11777    13994.837 
     586 2.7869365e-05   -796.11776            0   -796.11776    13994.827 
     587 2.9996266e-05   -796.11776            0   -796.11776    13994.816 
     588 3.218675e-05   -796.11775            0   -796.11775    13994.805 
     589 3.4438739e-05   -796.11775            0   -796.11775    13994.794 
     590 3.6750096e-05   -796.11774            0   -796.11774    13994.782 
     591 3.9118628e-05   -796.11774            0   -796.11774     13994.77 
     592 4.1542095e-05   -796.11773            0   -796.11773    13994.758 
     593 4.4018188e-05   -796.11773            0   -796.11772    13994.745 
     594 4.6544595e-05   -796.11772            0   -796.11772    13994.732 
     595 4.9118837e-05   -796.11771            0   -796.11771    13994.719 
     596 5.173874e-05   -796.11771            0   -796.11771    13994.705 
     597 5.4400988e-05    -796.1177            0    -796.1177    13994.692 
     598 5.7105544e-05   -796.11769            0   -796.11769    13994.677 
     599 5.983809e-05   -796.11769            0   -796.11769    13994.664 
     600 6.2598499e-05   -796.11768            0   -796.11768    13994.646 
     601 6.4843615e-05   -796.11767            0   -796.11767    13994.643 
     602 6.1331981e-05   -796.11766            0   -796.11766     13994.59 
     603 1.8017686e-05   -796.11766            0   -796.11766    13994.634 
     604 1.3187335e-06   -796.11766            0   -796.11766    13994.623 
     605 1.5834375e-06   -796.11766            0   -796.11766    13994.615 
     606 1.9346235e-06   -796.11766            0   -796.11766     13994.61 
     607 2.4078627e-06   -796.11766            0   -796.11766    13994.607 
     608 2.9565302e-06   -796.11766            0   -796.11766    13994.604 
     609 3.5629519e-06   -796.11765            0   -796.11765    13994.601 
     610 4.2244877e-06   -796.11765            0   -796.11765    13994.597 
     611 4.9403904e-06   -796.11765            0   -796.11765    13994.593 
     612 5.7100074e-06   -796.11765            0   -796.11765    13994.589 
     613 6.532639e-06   -796.11765            0   -796.11765    13994.585 
     614 7.4075332e-06   -796.11764            0   -796.11764     13994.58 
     615 8.3338878e-06   -796.11764            0   -796.11764    13994.575 
     616 9.3108506e-06   -796.11764            0   -796.11764     13994.57 
     617 1.0337521e-05   -796.11764            0   -796.11764    13994.565 
     618 1.141295e-05   -796.11763            0   -796.11763    13994.559 
     619 1.2536143e-05   -796.11763            0   -796.11763    13994.553 
     620 1.3706058e-05   -796.11763            0   -796.11763    13994.546 
     621 1.4921609e-05   -796.11762            0   -796.11762     13994.54 
     622 1.6181666e-05   -796.11762            0   -796.11762    13994.533 
     623 1.7485059e-05   -796.11761            0   -796.11761    13994.526 
     624 1.8830573e-05   -796.11761            0   -796.11761    13994.518 
     625 2.0216957e-05   -796.11761            0   -796.11761    13994.511 
     626 2.1642918e-05    -796.1176            0    -796.1176    13994.503 
     627 2.3107129e-05    -796.1176            0    -796.1176    13994.495 
     628 2.4608222e-05   -796.11759            0   -796.11759    13994.487 
     629 2.6144809e-05   -796.11759            0   -796.11759    13994.478 
     630 2.771543e-05   -796.11758            0   -796.11758    13994.469 
     631 2.9318697e-05   -796.11758            0   -796.11758     13994.46 
     632 3.0952908e-05   -796.11757            0   -796.11757    13994.451 
     633 3.2617148e-05   -796.11757            0   -796.11757    13994.442 
     634 3.4307847e-05   -796.11756            0   -796.11756    13994.433 
     635 3.6028878e-05   -796.11755            0   -796.11755    13994.422 
     636 3.7744997e-05   -796.11755            0   -796.11755    13994.415 
     637 3.9388314e-05   -796.11754            0   -796.11754    13994.397 
     638 3.8661204e-05   -796.11754            0   -796.11754    13994.414 
     639 1.872304e-05   -796.11753            0   -796.11753    13994.362 
     640 2.645123e-07   -796.11753            0   -796.11753    13994.366 
     641  4.28264e-07   -796.11753            0   -796.11753    13994.372 
     642 6.045683e-07   -796.11753            0   -796.11753    13994.377 
     643 7.808287e-07   -796.11753            0   -796.11753    13994.381 
     644 9.8688961e-07   -796.11753            0   -796.11753    13994.383 
     645 1.2555092e-06   -796.11753            0   -796.11753    13994.382 
     646 1.5763841e-06   -796.11753            0   -796.11753     13994.38 
     647 1.9366173e-06   -796.11753            0   -796.11753    13994.378 
     648 2.3331113e-06   -796.11753            0   -796.11753    13994.376 
     649 2.765432e-06   -796.11752            0   -796.11752    13994.374 
     650 3.2332279e-06   -796.11752            0   -796.11752    13994.371 
     651 3.7360816e-06   -796.11752            0   -796.11752    13994.368 
     652 4.2735425e-06   -796.11752            0   -796.11752    13994.365 
     653 4.8451267e-06   -796.11752            0   -796.11752    13994.362 
     654 5.4503179e-06   -796.11751            0   -796.11751    13994.359 
     655 6.0885678e-06   -796.11751            0   -796.11751    13994.355 
     656 6.7592965e-06   -796.11751            0   -796.11751    13994.351 
     657 7.4618931e-06   -796.11751            0   -796.11751    13994.347 
     658 8.1957164e-06    -796.1175            0    -796.1175    13994.343 
     659 8.9600958e-06    -796.1175            0    -796.1175    13994.338 
     660 9.7543315e-06    -796.1175            0    -796.1175    13994.334 
     661 1.0577695e-05   -796.11749            0   -796.11749    13994.329 
     662 1.1429432e-05   -796.11749            0   -796.11749    13994.324 
     663 1.2308759e-05   -796.11749            0   -796.11749    13994.319 
     664 1.3214867e-05   -796.11748            0   -796.11748    13994.314 
     665 1.4146924e-05   -796.11748            0   -796.11748    13994.308 
     666 1.5104071e-05   -796.11748            0   -796.11748    13994.302 
     667 1.6085426e-05   -796.11747            0   -796.11747    13994.297 
     668 1.7090087e-05   -796.11747            0   -796.11747    13994.291 
     669 1.8117122e-05   -796.11746            0   -796.11746    13994.285 
     670 1.9165603e-05   -796.11746            0   -796.11746    13994.278 
     671 2.0234508e-05   -796.11745            0   -796.11745    13994.272 
     672 2.1323018e-05   -796.11745            0   -796.11745    13994.266 
     673 2.2429576e-05   -796.11744            0   -796.11744    13994.259 
     674 2.3554858e-05   -796.11744            0   -796.11744    13994.252 
     675 2.4689453e-05   -796.11743            0   -796.11743    13994.246 
     676 2.5831628e-05   -796.11743            0   -796.11743    13994.237 
     677 2.6507171e-05   -796.11742            0   -796.11742     13994.24 
     678 2.1916581e-05   -796.11742            0   -796.11742    13994.201 
     679 1.6361703e-06   -796.11742            0   -796.11742    13994.216 
     680 1.4534999e-06   -796.11742            0   -796.11742    13994.223 
     681 1.4438884e-06   -796.11742            0   -796.11742    13994.222 
     682 1.7206116e-06   -796.11741            0   -796.11741     13994.22 
     683 2.0207105e-06   -796.11741            0   -796.11741    13994.219 
     684 2.3440308e-06   -796.11741            0   -796.11741    13994.217 
     685 2.6902584e-06   -796.11741            0   -796.11741    13994.215 
     686 3.0590959e-06   -796.11741            0   -796.11741    13994.213 
     687 3.4502082e-06   -796.11741            0   -796.11741     13994.21 
     688 3.8632484e-06    -796.1174            0    -796.1174    13994.208 
     689 4.297842e-06    -796.1174            0    -796.1174    13994.205 
     690 4.7536002e-06    -796.1174            0    -796.1174    13994.202 
     691 5.2301079e-06    -796.1174            0    -796.1174    13994.199 
     692 5.7269377e-06   -796.11739            0   -796.11739    13994.196 
     693 6.2436333e-06   -796.11739            0   -796.11739    13994.193 
     694 6.7797337e-06   -796.11739            0   -796.11739     13994.19 
     695 7.3347369e-06   -796.11739            0   -796.11739    13994.187 
     696 7.9081629e-06   -796.11738            0   -796.11738    13994.183 
     697 8.4994384e-06   -796.11738            0   -796.11738     13994.18 
     698 9.1081279e-06   -796.11738            0   -796.11738    13994.176 
     699 9.7334368e-06   -796.11737            0   -796.11737    13994.172 
     700 1.0375338e-05   -796.11737            0   -796.11737    13994.168 
     701 1.1031711e-05   -796.11737            0   -796.11737    13994.164 
     702 1.170498e-05   -796.11736            0   -796.11736     13994.16 
     703 1.2377171e-05   -796.11736            0   -796.11736    13994.157 
     704 1.3022012e-05   -796.11735            0   -796.11735    13994.149 
     705 1.2995473e-05   -796.11735            0   -796.11735    13994.156 
     706 8.7689692e-06   -796.11735            0   -796.11735    13994.129 
     707 8.1084979e-07   -796.11735            0   -796.11735    13994.138 
     708  8.04737e-07   -796.11735            0   -796.11735    13994.142 
     709 8.9202233e-07   -796.11734            0   -796.11734    13994.142 
     710 1.0788278e-06   -796.11734            0   -796.11734    13994.141 
     711 1.2843374e-06   -796.11734            0   -796.11734     13994.14 
     712 1.5072004e-06   -796.11734            0   -796.11734    13994.138 
     713 1.7472019e-06   -796.11734            0   -796.11734    13994.137 
     714 2.0041341e-06   -796.11734            0   -796.11734    13994.135 
     715 2.2777676e-06   -796.11734            0   -796.11734    13994.133 
     716 2.5678596e-06   -796.11734            0   -796.11734    13994.132 
     717 2.8741502e-06   -796.11733            0   -796.11733     13994.13 
     718 3.1963656e-06   -796.11733            0   -796.11733    13994.128 
     719 3.5342156e-06   -796.11733            0   -796.11733    13994.126 
     720 3.8873965e-06   -796.11733            0   -796.11733    13994.124 
     721 4.2555886e-06   -796.11732            0   -796.11732    13994.121 
     722 4.6384599e-06   -796.11732            0   -796.11732    13994.119 
     723 5.0356617e-06   -796.11732            0   -796.11732    13994.117 
     724 5.4468366e-06   -796.11732            0   -796.11732    13994.114 
     725 5.8716047e-06   -796.11731            0   -796.11731    13994.112 
     726 6.3095918e-06   -796.11731            0   -796.11731    13994.109 
     727 6.7603717e-06   -796.11731            0   -796.11731    13994.106 
     728 7.2235951e-06   -796.11731            0   -796.11731    13994.103 
     729 7.6986852e-06    -796.1173            0    -796.1173      13994.1 
     730 8.1855976e-06    -796.1173            0    -796.1173    13994.097 
     731 8.6827352e-06    -796.1173            0    -796.1173    13994.094 
     732 9.192356e-06   -796.11729            0   -796.11729    13994.091 
     733 9.6997215e-06   -796.11729            0   -796.11729    13994.089 
     734 1.0189521e-05   -796.11729            0   -796.11729    13994.082 
     735 1.005787e-05   -796.11728            0   -796.11728    13994.091 
     736 5.8117827e-06   -796.11728            0   -796.11728    13994.065 
     737 2.6353363e-07   -796.11728            0   -796.11728    13994.071 
     738 3.2599665e-07   -796.11728            0   -796.11728    13994.075 
     739 3.781865e-07   -796.11728            0   -796.11728    13994.077 
     740 4.6208548e-07   -796.11728            0   -796.11728    13994.078 
     741 5.7612433e-07   -796.11728            0   -796.11728    13994.077 
     742 7.0520738e-07   -796.11728            0   -796.11728    13994.076 
     743 8.4699514e-07   -796.11727            0   -796.11727    13994.075 
     744 1.0013818e-06   -796.11727            0   -796.11727    13994.074 
     745 1.168239e-06   -796.11727            0   -796.11727    13994.073 
     746 1.3474189e-06   -796.11727            0   -796.11727    13994.072 
     747 1.5387638e-06   -796.11727            0   -796.11727    13994.071 
     748 1.7421037e-06   -796.11727            0   -796.11727     13994.07 
     749 1.9572578e-06   -796.11727            0   -796.11727    13994.069 
     750 2.1840336e-06   -796.11727            0   -796.11727    13994.067 
     751 2.4222281e-06   -796.11726            0   -796.11726    13994.066 
     752 2.671627e-06   -796.11726            0   -796.11726    13994.064 
     753 2.932006e-06   -796.11726            0   -796.11726    13994.063 
     754 3.2031296e-06   -796.11726            0   -796.11726    13994.061 
     755 3.4847531e-06   -796.11726            0   -796.11726    13994.059 
     756 3.7766205e-06   -796.11725            0   -796.11725    13994.058 
     757 4.0784679e-06   -796.11725            0   -796.11725    13994.056 
     758 4.390019e-06   -796.11725            0   -796.11725    13994.054 
     759 4.7109939e-06   -796.11725            0   -796.11725    13994.052 
     760 5.0410911e-06   -796.11724            0   -796.11724     13994.05 
     761  5.38003e-06   -796.11724            0   -796.11724    13994.048 
     762 5.7274458e-06   -796.11724            0   -796.11724    13994.046 
     763  6.08317e-06   -796.11723            0   -796.11723    13994.043 
     764 6.446429e-06   -796.11723            0   -796.11723    13994.041 
     765 6.8181225e-06   -796.11723            0   -796.11723    13994.039 
     766 7.1925766e-06   -796.11723            0   -796.11723    13994.037 
     767 7.5721404e-06   -796.11722            0   -796.11722    13994.033 
     768 7.7621468e-06   -796.11722            0   -796.11722    13994.037 
     769 6.3093757e-06   -796.11722            0   -796.11722    13994.016 
     770 5.6341648e-07   -796.11722            0   -796.11722    13994.025 
     771 4.8196183e-07   -796.11721            0   -796.11721    13994.029 
     772 4.9296165e-07   -796.11721            0   -796.11721    13994.029 
     773 5.9358811e-07   -796.11721            0   -796.11721    13994.028 
     774 7.0326827e-07   -796.11721            0   -796.11721    13994.027 
     775 8.2195818e-07   -796.11721            0   -796.11721    13994.027 
     776 9.4951719e-07   -796.11721            0   -796.11721    13994.026 
     777 1.0858447e-06   -796.11721            0   -796.11721    13994.025 
     778 1.2308135e-06   -796.11721            0   -796.11721    13994.024 
     779 1.3842986e-06   -796.11721            0   -796.11721    13994.023 
     780 1.5461594e-06    -796.1172            0    -796.1172    13994.022 
     781 1.7162543e-06    -796.1172            0    -796.1172    13994.021 
     782 1.8944262e-06    -796.1172            0    -796.1172     13994.02 
     783 2.0805197e-06    -796.1172            0    -796.1172    13994.019 
     784 2.2743591e-06    -796.1172            0    -796.1172    13994.018 
     785 2.4757808e-06    -796.1172            0    -796.1172    13994.017 
     786 2.6845816e-06   -796.11719            0   -796.11719    13994.016 
     787 2.9006096e-06   -796.11719            0   -796.11719    13994.014 
     788 3.1235907e-06   -796.11719            0   -796.11719    13994.013 
     789 3.3534871e-06   -796.11719            0   -796.11719    13994.012 
     790 3.5896902e-06   -796.11719            0   -796.11719     13994.01 
     791 3.8328811e-06   -796.11718            0   -796.11718    13994.009 
     792 4.0798716e-06   -796.11718            0   -796.11718    13994.008 
     793 4.3339811e-06   -796.11718            0   -796.11718    13994.005 
     794 4.544742e-06   -796.11718            0   -796.11718    13994.007 
     795 4.5027013e-06   -796.11717            0   -796.11717    13993.996 
     796 2.5027192e-06   -796.11717            0   -796.11717    13994.011 
     797 2.3740577e-07   -796.11717            0   -796.11717    13994.005 
     798 2.4750793e-07   -796.11717            0   -796.11717    13994.002 
     799 2.7941805e-07   -796.11717            0   -796.11717    13994.001 
     800 3.4350026e-07   -796.11717            0   -796.11717    13994.001 
     801 4.1706033e-07   -796.11717            0   -796.11717        13994 
     802 4.9764716e-07   -796.11717            0   -796.11717        13994 
     803 5.8512077e-07   -796.11717            0   -796.11717    13993.999 
     804 6.7940907e-07   -796.11717            0   -796.11717    13993.999 
     805 7.8042741e-07   -796.11717            0   -796.11717    13993.998 
     806 8.8808683e-07   -796.11716            0   -796.11716    13993.998 
     807 1.002291e-06   -796.11716            0   -796.11716    13993.997 
     808 1.1229381e-06   -796.11716            0   -796.11716    13993.996 
     809 1.2499195e-06   -796.11716            0   -796.11716    13993.995 
     810 1.3831214e-06   -796.11716            0   -796.11716    13993.995 
     811 1.5224229e-06   -796.11716            0   -796.11716    13993.994 
     812 1.6676988e-06   -796.11716            0   -796.11716    13993.993 
     813 1.8188163e-06   -796.11715            0   -796.11715    13993.992 
     814 1.9756397e-06   -796.11715            0   -796.11715    13993.991 
     815 2.1380232e-06   -796.11715            0   -796.11715     13993.99 
     816 2.3058244e-06   -796.11715            0   -796.11715    13993.989 
     817 2.4788776e-06   -796.11715            0   -796.11715    13993.988 
     818 2.6570526e-06   -796.11714            0   -796.11714    13993.987 
     819 2.8401163e-06   -796.11714            0   -796.11714    13993.986 
     820 3.0280784e-06   -796.11714            0   -796.11714    13993.985 
     821 3.2202469e-06   -796.11714            0   -796.11714    13993.984 
     822 3.4177189e-06   -796.11714            0   -796.11714    13993.983 
     823 3.6141519e-06   -796.11713            0   -796.11713    13993.982 
     824 3.8061868e-06   -796.11713            0   -796.11713    13993.979 
     825 3.754652e-06   -796.11713            0   -796.11713    13993.986 
     826 2.1204612e-06   -796.11713            0   -796.11713     13993.97 
     827 9.5425696e-08   -796.11713            0   -796.11713    13993.973 
     828 1.2007403e-07   -796.11713            0   -796.11713    13993.976 
     829 1.4113094e-07   -796.11713            0   -796.11713    13993.978 
     830 1.7390181e-07   -796.11713            0   -796.11713    13993.978 
     831 2.1857841e-07   -796.11713            0   -796.11713    13993.978 
     832 2.6939047e-07   -796.11712            0   -796.11712    13993.978 
     833 3.2537314e-07   -796.11712            0   -796.11712    13993.978 
     834 3.8648946e-07   -796.11712            0   -796.11712    13993.977 
     835 4.5268847e-07   -796.11712            0   -796.11712    13993.977 
     836 5.2391128e-07   -796.11712            0   -796.11712    13993.976 
     837 6.0009486e-07   -796.11712            0   -796.11712    13993.976 
     838 6.8117123e-07   -796.11712            0   -796.11712    13993.976 
     839 7.6706786e-07   -796.11712            0   -796.11712    13993.975 
     840 8.5770753e-07   -796.11712            0   -796.11712    13993.975 
     841 9.5300861e-07   -796.11712            0   -796.11712    13993.974 
     842 1.0528849e-06   -796.11711            0   -796.11711    13993.974 
     843 1.1572459e-06   -796.11711            0   -796.11711    13993.973 
     844 1.2659967e-06   -796.11711            0   -796.11711    13993.972 
     845 1.3790384e-06   -796.11711            0   -796.11711    13993.972 
     846 1.4962675e-06   -796.11711            0   -796.11711    13993.971 
     847 1.6175775e-06   -796.11711            0   -796.11711     13993.97 
     848 1.7428556e-06   -796.11711            0   -796.11711     13993.97 
     849 1.8719906e-06    -796.1171            0    -796.1171    13993.969 
     850 2.0048548e-06    -796.1171            0    -796.1171    13993.968 
     851 2.1413481e-06    -796.1171            0    -796.1171    13993.968 
     852 2.2812846e-06    -796.1171            0    -796.1171    13993.967 
     853 2.4247015e-06    -796.1171            0    -796.1171    13993.966 
     854 2.5709269e-06   -796.11709            0   -796.11709    13993.965 
     855 2.7211633e-06   -796.11709            0   -796.11709    13993.964 
     856  2.86671e-06   -796.11709            0   -796.11709    13993.965 
     857 2.9881133e-06   -796.11709            0   -796.11709     13993.96 
     858 2.5846922e-06   -796.11709            0   -796.11709    13993.971 
     859 4.3125884e-07   -796.11709            0   -796.11709    13993.962 
     860 2.0590307e-07   -796.11709            0   -796.11709    13993.962 
     861 2.4760233e-07   -796.11708            0   -796.11708    13993.962 
     862 2.9341058e-07   -796.11708            0   -796.11708    13993.962 
     863 3.4294083e-07   -796.11708            0   -796.11708    13993.961 
     864 3.9618786e-07   -796.11708            0   -796.11708    13993.961 
     865 4.5308607e-07   -796.11708            0   -796.11708    13993.961 
     866 5.1359514e-07   -796.11708            0   -796.11708     13993.96 
     867 5.7765249e-07   -796.11708            0   -796.11708     13993.96 
     868 6.4520782e-07   -796.11708            0   -796.11708     13993.96 
     869 7.1619183e-07   -796.11708            0   -796.11708    13993.959 
     870 7.9055007e-07   -796.11708            0   -796.11708    13993.959 
     871 8.6820095e-07   -796.11708            0   -796.11708    13993.959 
     872 9.4909482e-07   -796.11707            0   -796.11707    13993.958 
     873 1.0331217e-06   -796.11707            0   -796.11707    13993.958 
     874 1.1202699e-06   -796.11707            0   -796.11707    13993.957 
     875 1.2103265e-06   -796.11707            0   -796.11707    13993.957 
     876 1.3034789e-06   -796.11707            0   -796.11707    13993.957 
     877 1.3989432e-06   -796.11707            0   -796.11707    13993.956 
     878 1.4978687e-06   -796.11707            0   -796.11707    13993.955 
     879  1.59372e-06   -796.11706            0   -796.11706    13993.956 
     880 1.6797227e-06   -796.11706            0   -796.11706    13993.953 
     881 1.5876509e-06   -796.11706            0   -796.11706    13993.959 
     882 7.8667121e-07   -796.11706            0   -796.11706     13993.95 
     883 1.2118282e-07   -796.11706            0   -796.11706    13993.953 
     884 1.1860799e-07   -796.11706            0   -796.11706    13993.954 
     885 1.4309046e-07   -796.11706            0   -796.11706    13993.954 
     886 1.7443775e-07   -796.11706            0   -796.11706    13993.953 
     887 2.087892e-07   -796.11706            0   -796.11706    13993.953 
     888 2.4613654e-07   -796.11706            0   -796.11706    13993.953 
     889 2.8644075e-07   -796.11706            0   -796.11706    13993.953 
     890 3.2966773e-07   -796.11706            0   -796.11706    13993.953 
     891 3.7577779e-07   -796.11705            0   -796.11705    13993.953 
     892 4.2473007e-07   -796.11705            0   -796.11705    13993.952 
     893 4.7647979e-07   -796.11705            0   -796.11705    13993.952 
     894 5.3098057e-07   -796.11705            0   -796.11705    13993.952 
     895 5.8818222e-07   -796.11705            0   -796.11705    13993.952 
     896 6.4803336e-07   -796.11705            0   -796.11705    13993.951 
     897 7.1047811e-07   -796.11705            0   -796.11705    13993.951 
     898 7.7546108e-07   -796.11705            0   -796.11705    13993.951 
     899 8.429193e-07   -796.11705            0   -796.11705     13993.95 
     900 9.1279694e-07   -796.11705            0   -796.11705     13993.95 
     901 9.8501651e-07   -796.11704            0   -796.11704     13993.95 
     902 1.0595401e-06   -796.11704            0   -796.11704    13993.949 
     903 1.1362291e-06   -796.11704            0   -796.11704    13993.949 
     904 1.2151817e-06   -796.11704            0   -796.11704    13993.949 
     905 1.2958177e-06   -796.11704            0   -796.11704    13993.949 
     906 1.379096e-06   -796.11704            0   -796.11704    13993.948 
     907 1.4581388e-06   -796.11704            0   -796.11704    13993.949 
     908 1.5179551e-06   -796.11703            0   -796.11703    13993.945 
     909 1.2701961e-06   -796.11703            0   -796.11703    13993.953 
     910 2.402489e-07   -796.11703            0   -796.11703    13993.947 
     911 1.2158475e-07   -796.11703            0   -796.11703    13993.947 
     912 1.4689124e-07   -796.11703            0   -796.11703    13993.947 
     913 1.7451605e-07   -796.11703            0   -796.11703    13993.947 
     914 2.0444069e-07   -796.11703            0   -796.11703    13993.947 
     915 2.3663697e-07   -796.11703            0   -796.11703    13993.946 
     916 2.7107662e-07   -796.11703            0   -796.11703    13993.946 
     917 3.0772821e-07   -796.11703            0   -796.11703    13993.946 
     918 3.4655886e-07   -796.11703            0   -796.11703    13993.946 
     919 3.8753302e-07   -796.11703            0   -796.11703    13993.946 
     920 4.3061363e-07   -796.11703            0   -796.11703    13993.946 
     921 4.7576095e-07   -796.11702            0   -796.11702    13993.946 
     922 5.229341e-07   -796.11702            0   -796.11702    13993.945 
     923 5.7208895e-07   -796.11702            0   -796.11702    13993.945 
     924 6.2318158e-07   -796.11702            0   -796.11702    13993.945 
     925 6.761623e-07   -796.11702            0   -796.11702    13993.945 
     926 7.3098721e-07   -796.11702            0   -796.11702    13993.945 
     927 7.8759447e-07   -796.11702            0   -796.11702    13993.944 
     928  8.45957e-07   -796.11702            0   -796.11702    13993.944 
     929 9.0595638e-07   -796.11702            0   -796.11702    13993.944 
     930 9.676989e-07   -796.11701            0   -796.11701    13993.944 
     931 1.0306183e-06   -796.11701            0   -796.11701    13993.944 
     932 1.0956854e-06   -796.11701            0   -796.11701    13993.943 
     933 1.155095e-06   -796.11701            0   -796.11701    13993.944 
     934 1.1863237e-06   -796.11701            0   -796.11701     13993.94 
     935 8.350448e-07   -796.11701            0   -796.11701    13993.948 
     936 6.525165e-08   -796.11701            0   -796.11701    13993.945 
     937 6.6169001e-08   -796.11701            0   -796.11701    13993.943 
     938 6.8343183e-08   -796.11701            0   -796.11701    13993.943 
     939 8.368166e-08   -796.11701            0   -796.11701    13993.942 
     940 1.0205859e-07   -796.11701            0   -796.11701    13993.942 
     941 1.2223758e-07   -796.11701            0   -796.11701    13993.942 
     942 1.4417744e-07   -796.11701            0   -796.11701    13993.942 
     943 1.6786097e-07     -796.117            0     -796.117    13993.942 
     944 1.9326605e-07     -796.117            0     -796.117    13993.942 
     945 2.2037017e-07     -796.117            0     -796.117    13993.942 
     946 2.4914845e-07     -796.117            0     -796.117    13993.942 
     947 2.7957495e-07     -796.117            0     -796.117    13993.942 
     948 3.1162161e-07     -796.117            0     -796.117    13993.942 
     949 3.4525939e-07     -796.117            0     -796.117    13993.942 
     950 3.8045693e-07     -796.117            0     -796.117    13993.942 
     951 4.1718249e-07     -796.117            0     -796.117    13993.941 
     952 4.5540106e-07     -796.117            0     -796.117    13993.941 
     953 4.9507925e-07     -796.117            0     -796.117    13993.941 
     954 5.3617639e-07     -796.117            0     -796.117    13993.941 
     955 5.7866247e-07     -796.117            0     -796.117    13993.941 
     956 6.2247931e-07   -796.11699            0   -796.11699    13993.941 
     957 6.6763062e-07   -796.11699            0   -796.11699    13993.941 
     958 7.139546e-07   -796.11699            0   -796.11699    13993.941 
     959 7.6170229e-07   -796.11699            0   -796.11699     13993.94 
     960 8.0969117e-07   -796.11699            0   -796.11699    13993.941 
     961 8.5873892e-07   -796.11699            0   -796.11699    13993.939 
     962 8.7977736e-07   -796.11699            0   -796.11699    13993.942 
     963 7.0870131e-07   -796.11699            0   -796.11699    13993.935 
     964 8.4423221e-08   -796.11699            0   -796.11699    13993.939 
     965 6.5312182e-08   -796.11699            0   -796.11699     13993.94 
     966 7.2284075e-08   -796.11699            0   -796.11699     13993.94 
     967 8.7220624e-08   -796.11698            0   -796.11698     13993.94 
     968 1.0354526e-07   -796.11698            0   -796.11698     13993.94 
     969 1.2121697e-07   -796.11698            0   -796.11698     13993.94 
     970 1.4022545e-07   -796.11698            0   -796.11698     13993.94 
     971 1.6055085e-07   -796.11698            0   -796.11698     13993.94 
     972 1.8217641e-07   -796.11698            0   -796.11698     13993.94 
     973 2.0508103e-07   -796.11698            0   -796.11698     13993.94 
     974 2.2924508e-07   -796.11698            0   -796.11698    13993.939 
     975 2.5464486e-07   -796.11698            0   -796.11698    13993.939 
     976 2.8125894e-07   -796.11698            0   -796.11698    13993.939 
     977 3.0905991e-07   -796.11698            0   -796.11698    13993.939 
     978 3.3802659e-07   -796.11698            0   -796.11698    13993.939 
     979 3.6812413e-07   -796.11698            0   -796.11698    13993.939 
     980 3.9933969e-07   -796.11698            0   -796.11698    13993.939 
     981 4.3161255e-07   -796.11698            0   -796.11698    13993.939 
     982 4.6498084e-07   -796.11697            0   -796.11697    13993.939 
     983 4.9923905e-07   -796.11697            0   -796.11697    13993.939 
     984 5.3471892e-07   -796.11697            0   -796.11697    13993.939 
     985 5.6983894e-07   -796.11697            0   -796.11697    13993.939 
     986 6.0437988e-07   -796.11697            0   -796.11697    13993.938 
     987 5.9971884e-07   -796.11697            0   -796.11697    13993.941 
     988 3.869741e-07   -796.11697            0   -796.11697    13993.935 
     989 4.1513582e-08   -796.11697            0   -796.11697    13993.937 
     990 3.998544e-08   -796.11697            0   -796.11697    13993.938 
     991 4.5358385e-08   -796.11697            0   -796.11697    13993.939 
     992 5.5901666e-08   -796.11697            0   -796.11697    13993.939 
     993 6.7598384e-08   -796.11697            0   -796.11697    13993.939 
     994 8.0375524e-08   -796.11697            0   -796.11697    13993.939 
     995 9.4220306e-08   -796.11697            0   -796.11697    13993.939 
     996 1.0912058e-07   -796.11697            0   -796.11697    13993.938 
     997 1.2506268e-07   -796.11697            0   -796.11697    13993.938 
     998 1.4203219e-07   -796.11697            0   -796.11697    13993.938 
     999 1.6001352e-07   -796.11697            0   -796.11697    13993.938 
    1000 1.7899024e-07   -796.11696            0   -796.11696    13993.938 
    1001 1.989448e-07   -796.11696            0   -796.11696    13993.938 
    1002 2.1985889e-07   -796.11696            0   -796.11696    13993.938 
    1003  2.41713e-07   -796.11696            0   -796.11696    13993.938 
    1004 2.644871e-07   -796.11696            0   -796.11696    13993.938 
    1005 2.8815959e-07   -796.11696            0   -796.11696    13993.938 
    1006 3.1270924e-07   -796.11696            0   -796.11696    13993.938 
    1007 3.3811141e-07   -796.11696            0   -796.11696    13993.938 
    1008 3.6434617e-07   -796.11696            0   -796.11696    13993.938 
    1009 3.9137983e-07   -796.11696            0   -796.11696    13993.938 
    1010 4.1920981e-07   -796.11696            0   -796.11696    13993.938 
    1011 4.4774628e-07   -796.11696            0   -796.11696    13993.938 
    1012 4.7712642e-07   -796.11696            0   -796.11696    13993.938 
    1013 5.0666307e-07   -796.11695            0   -796.11695    13993.938 
    1014 5.3679207e-07   -796.11695            0   -796.11695    13993.938 
    1015 5.4834186e-07   -796.11695            0   -796.11695     13993.94 
    1016 4.2513094e-07   -796.11695            0   -796.11695    13993.934 
    1017 3.6587776e-08   -796.11695            0   -796.11695    13993.937 
    1018 3.4294834e-08   -796.11695            0   -796.11695    13993.938 
    1019 3.575608e-08   -796.11695            0   -796.11695    13993.938 
    1020 4.3890578e-08   -796.11695            0   -796.11695    13993.938 
    1021 5.2930735e-08   -796.11695            0   -796.11695    13993.938 
    1022 6.2796087e-08   -796.11695            0   -796.11695    13993.938 
    1023 7.3473685e-08   -796.11695            0   -796.11695    13993.938 
[...]
    2250 3.5538628e-05   -796.17287            0   -796.17286    14068.316 
    2251 3.7623745e-05   -796.17287            0   -796.17287    14068.351 
    2252 3.973761e-05   -796.17287            0   -796.17287    14068.385 
    2253 4.1780318e-05   -796.17287            0   -796.17287    14068.423 
    2254 4.3052187e-05   -796.17288            0   -796.17288    14068.453 
    2255 3.5107343e-05   -796.17288            0   -796.17288    14068.505 
    2256 5.2289448e-06   -796.17288            0   -796.17288    14068.496 
    2257 2.0111412e-06   -796.17288            0   -796.17288    14068.507 
    2258 2.4362877e-06   -796.17288            0   -796.17288    14068.516 
    2259 2.9324472e-06   -796.17288            0   -796.17288    14068.525 
    2260 3.4723682e-06   -796.17288            0   -796.17288    14068.535 
    2261 4.0551733e-06   -796.17288            0   -796.17288    14068.546 
    2262 4.6799377e-06   -796.17289            0   -796.17289    14068.557 
    2263 5.3457136e-06   -796.17289            0   -796.17289     14068.57 
    2264 6.0514764e-06   -796.17289            0   -796.17289    14068.583 
    2265 6.7961437e-06   -796.17289            0   -796.17289    14068.597 
    2266 7.5785685e-06   -796.17289            0   -796.17289    14068.612 
    2267 8.3975478e-06   -796.17289            0   -796.17289    14068.628 
    2268 9.2518195e-06   -796.17289            0   -796.17289    14068.645 
    2269 1.014007e-05   -796.17289            0   -796.17289    14068.662 
    2270 1.1060931e-05   -796.17289            0   -796.17289    14068.681 
    2271 1.201299e-05    -796.1729            0    -796.1729      14068.7 
    2272 1.2994781e-05    -796.1729            0    -796.1729     14068.72 
    2273 1.4004808e-05    -796.1729            0    -796.1729    14068.741 
    2274 1.5041509e-05    -796.1729            0    -796.1729    14068.762 
    2275 1.6103335e-05    -796.1729            0    -796.1729    14068.784 
    2276 1.7188593e-05    -796.1729            0    -796.1729    14068.808 
    2277 1.8295813e-05    -796.1729            0    -796.1729    14068.831 
    2278 1.9422825e-05   -796.17291            0   -796.17291    14068.856 
    2279 2.0569013e-05   -796.17291            0   -796.17291    14068.881 
    2280 2.1727074e-05   -796.17291            0   -796.17291    14068.908 
    2281 2.288904e-05   -796.17291            0   -796.17291    14068.934 
    2282 2.3816248e-05   -796.17291            0   -796.17291    14068.964 
    2283 2.2422389e-05   -796.17291            0   -796.17291     14068.98 
    2284 7.9821766e-06   -796.17291            0   -796.17291    14069.012 
    2285 2.1677573e-07   -796.17291            0   -796.17291    14069.011 
    2286 3.524112e-07   -796.17291            0   -796.17291     14069.01 
    2287 5.3255407e-07   -796.17291            0   -796.17291    14069.011 
    2288 7.2635326e-07   -796.17291            0   -796.17291    14069.015 
    2289 9.318773e-07   -796.17292            0   -796.17292    14069.019 
    2290 1.1603848e-06   -796.17292            0   -796.17292    14069.025 
    2291 1.4134694e-06   -796.17292            0   -796.17292    14069.031 
    2292 1.6905422e-06   -796.17292            0   -796.17292    14069.038 
    2293 1.9911098e-06   -796.17292            0   -796.17292    14069.046 
    2294 2.3147179e-06   -796.17292            0   -796.17292    14069.054 
    2295 2.6608847e-06   -796.17292            0   -796.17292    14069.063 
    2296 3.029092e-06   -796.17292            0   -796.17292    14069.072 
    2297 3.4187874e-06   -796.17292            0   -796.17292    14069.082 
    2298 3.8293849e-06   -796.17292            0   -796.17292    14069.093 
    2299 4.2602662e-06   -796.17292            0   -796.17292    14069.104 
    2300 4.7107816e-06   -796.17292            0   -796.17292    14069.116 
    2301 5.1802514e-06   -796.17292            0   -796.17292    14069.129 
    2302 5.6679668e-06   -796.17292            0   -796.17292    14069.142 
    2303 6.1731915e-06   -796.17292            0   -796.17292    14069.155 
    2304 6.6951625e-06   -796.17292            0   -796.17292     14069.17 
    2305 7.2330924e-06   -796.17292            0   -796.17292    14069.185 
    2306 7.7861695e-06   -796.17292            0   -796.17292      14069.2 
    2307 8.3535611e-06   -796.17292            0   -796.17292    14069.216 
    2308 8.9344117e-06   -796.17292            0   -796.17292    14069.233 
    2309 9.5278508e-06   -796.17293            0   -796.17293     14069.25 
    2310 1.0132981e-05   -796.17293            0   -796.17293    14069.268 
    2311 1.0748912e-05   -796.17293            0   -796.17293    14069.286 
    2312 1.1374676e-05   -796.17293            0   -796.17293    14069.305 
    2313 1.2009472e-05   -796.17293            0   -796.17293    14069.325 
    2314 1.2651895e-05   -796.17293            0   -796.17293    14069.344 
    2315 1.3302015e-05   -796.17293            0   -796.17293    14069.365 
    2316 1.3949314e-05   -796.17293            0   -796.17293    14069.386 
    2317 1.4546944e-05   -796.17293            0   -796.17293    14069.406 
    2318 1.411498e-05   -796.17293            0   -796.17293    14069.433 
    2319 6.0601107e-06   -796.17293            0   -796.17293    14069.432 
    2320 2.5773957e-08   -796.17293            0   -796.17293    14069.433 
    2321 5.1026954e-08   -796.17293            0   -796.17293    14069.435 
    2322 8.9870585e-08   -796.17293            0   -796.17293    14069.438 
    2323 1.4870768e-07   -796.17293            0   -796.17293    14069.442 
    2324 2.3011416e-07   -796.17293            0   -796.17293    14069.446 
    2325 3.2338359e-07   -796.17293            0   -796.17293    14069.449 
    2326 4.2279484e-07   -796.17293            0   -796.17293    14069.453 
    2327 5.3254232e-07   -796.17293            0   -796.17293    14069.457 
    2328 6.5426497e-07   -796.17293            0   -796.17293    14069.461 
    2329 7.879594e-07   -796.17293            0   -796.17293    14069.466 
    2330 9.3347061e-07   -796.17293            0   -796.17293    14069.471 
    2331 1.0905985e-06   -796.17293            0   -796.17293    14069.477 
    2332 1.2591131e-06   -796.17293            0   -796.17293    14069.483 
    2333 1.4387669e-06   -796.17293            0   -796.17293    14069.489 
    2334 1.6292949e-06   -796.17293            0   -796.17293    14069.496 
    2335 1.8304154e-06   -796.17293            0   -796.17293    14069.504 
    2336 2.0418304e-06   -796.17293            0   -796.17293    14069.511 
    2337 2.2632259e-06   -796.17293            0   -796.17293     14069.52 
    2338 2.4942726e-06   -796.17293            0   -796.17293    14069.528 
    2339 2.7346265e-06   -796.17293            0   -796.17293    14069.538 
    2340 2.9839293e-06   -796.17293            0   -796.17293    14069.547 
    2341 3.2418089e-06   -796.17293            0   -796.17293    14069.557 
    2342 3.5078806e-06   -796.17293            0   -796.17293    14069.567 
    2343 3.7817471e-06   -796.17293            0   -796.17293    14069.578 
    2344 4.0629993e-06   -796.17293            0   -796.17293    14069.589 
    2345 4.3512172e-06   -796.17293            0   -796.17293    14069.601 
    2346 4.6459706e-06   -796.17293            0   -796.17293    14069.613 
    2347 4.9468195e-06   -796.17293            0   -796.17293    14069.625 
    2348 5.2533149e-06   -796.17293            0   -796.17293    14069.638 
    2349 5.5650006e-06   -796.17293            0   -796.17293    14069.651 
    2350 5.8814098e-06   -796.17293            0   -796.17293    14069.665 
    2351 6.2020784e-06   -796.17294            0   -796.17293    14069.679 
    2352 6.5265094e-06   -796.17294            0   -796.17294    14069.693 
    2353 6.8542828e-06   -796.17294            0   -796.17294    14069.708 
    2354 7.184699e-06   -796.17294            0   -796.17294    14069.723 
    2355 7.5179169e-06   -796.17294            0   -796.17294    14069.738 
    2356 7.8494152e-06   -796.17294            0   -796.17294    14069.754 
    2357 8.1675245e-06   -796.17294            0   -796.17294    14069.769 
    2358 8.0299167e-06   -796.17294            0   -796.17294    14069.788 
    2359 3.5848801e-06   -796.17294            0   -796.17294     14069.79 
    2360 2.7417414e-09   -796.17294            0   -796.17294    14069.789 
    2361 8.0172668e-09   -796.17294            0   -796.17294     14069.79 
    2362 1.7016035e-08   -796.17294            0   -796.17294    14069.791 
    2363 3.092628e-08   -796.17294            0   -796.17294    14069.793 
    2364 5.2363559e-08   -796.17294            0   -796.17294    14069.795 
    2365 8.5295781e-08   -796.17294            0   -796.17294    14069.797 
    2366 1.2918468e-07   -796.17294            0   -796.17294      14069.8 
    2367 1.756823e-07   -796.17294            0   -796.17294    14069.803 
    2368 2.2439576e-07   -796.17294            0   -796.17294    14069.805 
    2369 2.7808793e-07   -796.17294            0   -796.17294    14069.808 
    2370 3.3723013e-07   -796.17294            0   -796.17294    14069.811 
    2371 4.0179039e-07   -796.17294            0   -796.17294    14069.814 
    2372 4.7169784e-07   -796.17294            0   -796.17294    14069.818 
    2373 5.4685504e-07   -796.17294            0   -796.17294    14069.822 
    2374 6.2715269e-07   -796.17294            0   -796.17294    14069.826 
    2375 7.1247368e-07   -796.17294            0   -796.17294    14069.831 
    2376 8.0269304e-07   -796.17294            0   -796.17293    14069.836 
    2377 8.976783e-07   -796.17293            0   -796.17293    14069.841 
    2378 9.9728961e-07   -796.17293            0   -796.17293    14069.846 
    2379  1.10138e-06   -796.17293            0   -796.17293    14069.852 
    2380 1.2097956e-06   -796.17293            0   -796.17293    14069.858 
    2381 1.3223758e-06   -796.17293            0   -796.17293    14069.864 
    2382 1.4389537e-06   -796.17293            0   -796.17293    14069.871 
    2383 1.5593563e-06   -796.17293            0   -796.17293    14069.878 
    2384 1.6834045e-06   -796.17293            0   -796.17293    14069.885 
    2385 1.810914e-06   -796.17293            0   -796.17293    14069.892 
    2386 1.9416947e-06   -796.17293            0   -796.17293      14069.9 
    2387 2.0755521e-06   -796.17293            0   -796.17293    14069.908 
    2388 2.2122862e-06   -796.17293            0   -796.17293    14069.916 
    2389 2.3516942e-06   -796.17293            0   -796.17293    14069.925 
    2390 2.4935658e-06   -796.17293            0   -796.17293    14069.934 
    2391 2.6376955e-06   -796.17293            0   -796.17293    14069.943 
    2392 2.7838507e-06   -796.17293            0   -796.17293    14069.952 
    2393 2.9318625e-06   -796.17293            0   -796.17293    14069.962 
    2394 3.0813183e-06   -796.17293            0   -796.17293    14069.971 
    2395  3.23222e-06   -796.17293            0   -796.17293    14069.981 
    2396 3.3781271e-06   -796.17293            0   -796.17293    14069.992 
    2397 3.4654118e-06   -796.17293            0   -796.17293    14070.001 
    2398 2.7130392e-06   -796.17293            0   -796.17293    14070.014 
    2399 2.2306645e-07   -796.17293            0   -796.17293    14070.013 
    2400 1.8124947e-07   -796.17293            0   -796.17293    14070.015 
    2401 2.1529984e-07   -796.17293            0   -796.17293    14070.018 
    2402 2.5224376e-07   -796.17293            0   -796.17293    14070.021 
    2403 2.9193975e-07   -796.17293            0   -796.17293    14070.023 
    2404 3.3431194e-07   -796.17293            0   -796.17293    14070.027 
    2405 3.7930299e-07   -796.17293            0   -796.17293     14070.03 
    2406 4.2684508e-07   -796.17293            0   -796.17293    14070.033 
    2407 4.7686968e-07   -796.17293            0   -796.17293    14070.037 
    2408 5.2930233e-07   -796.17293            0   -796.17293    14070.041 
    2409 5.8406649e-07   -796.17293            0   -796.17293    14070.045 
    2410 6.4108045e-07   -796.17293            0   -796.17293     14070.05 
    2411 7.0026073e-07   -796.17293            0   -796.17293    14070.054 
    2412 7.6151838e-07   -796.17293            0   -796.17293    14070.059 
    2413 8.2476414e-07   -796.17293            0   -796.17293    14070.064 
    2414 8.8990124e-07   -796.17293            0   -796.17293    14070.069 
    2415 9.5683731e-07   -796.17293            0   -796.17293    14070.074 
    2416 1.0254636e-06   -796.17293            0   -796.17293     14070.08 
    2417 1.0956945e-06   -796.17293            0   -796.17293    14070.086 
    2418 1.167381e-06   -796.17293            0   -796.17293    14070.092 
    2419 1.2404739e-06   -796.17293            0   -796.17293    14070.098 
    2420 1.3144211e-06   -796.17293            0   -796.17293    14070.104 
    2421  1.38805e-06   -796.17293            0   -796.17293    14070.111 
    2422 1.4457349e-06   -796.17293            0   -796.17293    14070.118 
    2423 1.3743664e-06   -796.17293            0   -796.17293    14070.123 
    2424 6.4317714e-07   -796.17293            0   -796.17293    14070.129 
    2425 4.521073e-08   -796.17293            0   -796.17293     14070.13 
    2426 7.5211154e-08   -796.17293            0   -796.17293    14070.131 
    2427 9.4429028e-08   -796.17293            0   -796.17293    14070.132 
    2428 1.137502e-07   -796.17293            0   -796.17293    14070.134 
    2429 1.3482493e-07   -796.17293            0   -796.17293    14070.136 
    2430 1.5759065e-07   -796.17293            0   -796.17293    14070.138 
    2431 1.8201303e-07   -796.17293            0   -796.17293     14070.14 
    2432 2.0805678e-07   -796.17293            0   -796.17293    14070.143 
    2433 2.3568383e-07   -796.17293            0   -796.17293    14070.145 
    2434 2.6485375e-07   -796.17293            0   -796.17293    14070.148 
    2435 2.9552368e-07   -796.17293            0   -796.17293    14070.151 
    2436 3.2764844e-07   -796.17293            0   -796.17293    14070.154 
    2437 3.6118058e-07   -796.17293            0   -796.17293    14070.157 
    2438 3.9607047e-07   -796.17293            0   -796.17293    14070.161 
    2439 4.3226636e-07   -796.17293            0   -796.17293    14070.164 
    2440 4.6971448e-07   -796.17293            0   -796.17293    14070.168 
    2441 5.0835907e-07   -796.17293            0   -796.17293    14070.172 
    2442 5.4814257e-07   -796.17293            0   -796.17293    14070.176 
    2443 5.8900553e-07   -796.17293            0   -796.17293     14070.18 
    2444 6.3088702e-07   -796.17293            0   -796.17293    14070.185 
    2445 6.7372408e-07   -796.17293            0   -796.17293    14070.189 
    2446 7.174532e-07   -796.17293            0   -796.17293    14070.194 
    2447 7.6200726e-07   -796.17293            0   -796.17293    14070.199 
    2448 8.0732312e-07   -796.17293            0   -796.17293    14070.204 
    2449 8.5332169e-07   -796.17292            0   -796.17292    14070.209 
    2450 8.9995525e-07   -796.17292            0   -796.17292    14070.214 
    2451 9.4699848e-07   -796.17292            0   -796.17292    14070.219 
    2452 9.9391405e-07   -796.17292            0   -796.17292    14070.225 
    2453 1.0310883e-06   -796.17292            0   -796.17292    14070.231 
    2454 9.5987351e-07   -796.17292            0   -796.17292    14070.235 
    2455 3.0021196e-07   -796.17292            0   -796.17292    14070.239 
    2456 5.4354091e-09   -796.17292            0   -796.17292     14070.24 
    2457 9.7122064e-09   -796.17292            0   -796.17292     14070.24 
    2458 1.6378182e-08   -796.17292            0   -796.17292     14070.24 
    2459 2.4408713e-08   -796.17292            0   -796.17292    14070.241 
    2460 3.2512454e-08   -796.17292            0   -796.17292    14070.242 
    2461 4.1092798e-08   -796.17292            0   -796.17292    14070.243 
    2462 5.0559627e-08   -796.17292            0   -796.17292    14070.244 
    2463 6.0970165e-08   -796.17292            0   -796.17292    14070.245 
    2464 7.2310577e-08   -796.17292            0   -796.17292    14070.247 
    2465 8.4563735e-08   -796.17292            0   -796.17292    14070.248 
    2466 9.7711822e-08   -796.17292            0   -796.17292     14070.25 
    2467 1.1173569e-07   -796.17292            0   -796.17292    14070.252 
    2468 1.2661482e-07   -796.17292            0   -796.17292    14070.253 
    2469 1.4232737e-07   -796.17292            0   -796.17292    14070.255 
    2470 1.5885018e-07   -796.17292            0   -796.17292    14070.258 
    2471 1.7615885e-07   -796.17292            0   -796.17292     14070.26 
    2472 1.9422773e-07   -796.17292            0   -796.17292    14070.262 
    2473 2.1302999e-07   -796.17292            0   -796.17292    14070.265 
    2474 2.3253766e-07   -796.17292            0   -796.17292    14070.267 
    2475 2.5272164e-07   -796.17292            0   -796.17292     14070.27 
    2476 2.735518e-07   -796.17292            0   -796.17292    14070.273 
    2477 2.9499696e-07   -796.17292            0   -796.17292    14070.276 
    2478 3.1702499e-07   -796.17292            0   -796.17292    14070.279 
    2479 3.3960284e-07   -796.17292            0   -796.17292    14070.282 
    2480 3.6269658e-07   -796.17292            0   -796.17292    14070.285 
    2481 3.8627149e-07   -796.17292            0   -796.17292    14070.289 
    2482 4.1029199e-07   -796.17292            0   -796.17292    14070.292 
    2483 4.3472204e-07   -796.17292            0   -796.17292    14070.296 
    2484 4.5952433e-07   -796.17292            0   -796.17292      14070.3 
    2485 4.846625e-07   -796.17292            0   -796.17292    14070.303 
    2486 5.1009521e-07   -796.17292            0   -796.17292    14070.307 
    2487 5.3579255e-07   -796.17292            0   -796.17292    14070.311 
    2488 5.6166905e-07   -796.17292            0   -796.17292    14070.315 
    2489 5.876107e-07   -796.17292            0   -796.17292     14070.32 
    2490 6.1051161e-07   -796.17292            0   -796.17292    14070.324 
    2491 5.9241033e-07   -796.17292            0   -796.17292    14070.328 
    2492 2.3316089e-07   -796.17292            0   -796.17292    14070.332 
    2493 6.6594793e-10   -796.17292            0   -796.17292    14070.332 
Loop time of 357.297 on 16 procs for 653 steps with 127 atoms

99.2% CPU use with 16 MPI tasks x no OpenMP threads

Minimization stats:
  Stopping criterion = energy tolerance
  Energy initial, next-to-last, final = 
        -796.116829678     -796.172917787     -796.172917783
  Force two-norm initial, final = 2.27965e-06 8.31773e-05
  Force max component initial, final = 2.11119e-06 4.93669e-05
  Final line search alpha, max atom move = 0 0
  Iterations, force evaluations = 653 653

MPI task timing breakdown:
Section |  min time  |  avg time  |  max time  |%varavg| %total
---------------------------------------------------------------
Pair    | 136.84     | 159.69     | 171.71     |  59.1 | 44.69
Neigh   | 0          | 0          | 0          |   0.0 |  0.00
Comm    | 0.1856     | 12.21      | 35.059     | 213.8 |  3.42
Output  | 0.10455    | 0.1052     | 0.1062     |   0.1 |  0.03
Modify  | 183.06     | 183.06     | 183.06     |   0.0 | 51.24
Other   |            | 2.231      |            |       |  0.62

Nlocal:    7.9375 ave 8 max 7 min
Histogram: 1 0 0 0 0 0 0 0 0 15
Nghost:    822.562 ave 828 max 816 min
Histogram: 2 0 0 6 0 0 2 0 3 3
Neighs:    0 ave 0 max 0 min
Histogram: 16 0 0 0 0 0 0 0 0 0
FullNghs:  1599.75 ave 1620 max 1412 min
Histogram: 1 0 0 0 0 0 0 0 0 15

Total # of neighbors = 25596
Ave neighs/atom = 201.543
Neighbor list builds = 0
Dangerous builds = 0
Total wall time: 0:22:55
