LAMMPS (12 Dec 2018)
Processor partition = 7
Reading data file ...
  orthogonal box = (0 0 0) to (10.0025 12.3537 10.615)
  2 by 4 by 2 MPI processor grid
  reading atoms ...
  127 atoms
Reading potential file lammps-force.nnp with DATE: 20201105
Neighbor list info ...
  update every 1 steps, delay 0 steps, check yes
  max neighbors/atom: 2000, page size: 100000
  master list distance cutoff = 8
  ghost atom cutoff = 8
  binsize = 4, bins = 3 4 3
  1 neighbor lists, perpetual/occasional/extra = 1 0 0
  (1) pair nnp3v, perpetual
      attributes: full, newton on
      pair build: full/bin/atomonly
      stencil: full/bin/3d
      bin: standard
Setting up quickmin style minimization ...
  Unit style    : metal
  Current step  : 0
Per MPI rank memory allocation (min/avg/max) = 2.736 | 2.736 | 2.736 Mbytes
Step Temp E_pair E_mol TotEng Press 
       0            0   -796.68047            0   -796.68047     13401.66 
       6  0.092325754   -796.68154            0   -796.68004    13408.421 
Loop time of 2.3581 on 16 procs for 6 steps with 127 atoms

98.9% CPU use with 16 MPI tasks x no OpenMP threads

Minimization stats:
  Stopping criterion = energy tolerance
  Energy initial, next-to-last, final = 
        -796.680469343     -796.681189813     -796.681544239
  Force two-norm initial, final = 0.292034 0.283352
  Force max component initial, final = 0.0445202 0.0435203
  Final line search alpha, max atom move = 0 0
  Iterations, force evaluations = 6 6

MPI task timing breakdown:
Section |  min time  |  avg time  |  max time  |%varavg| %total
---------------------------------------------------------------
Pair    | 1.9936     | 2.2673     | 2.357      |   5.4 | 96.15
Neigh   | 0          | 0          | 0          |   0.0 |  0.00
Comm    | 0.0006907  | 0.090346   | 0.36408    |  27.2 |  3.83
Output  | 0          | 0          | 0          |   0.0 |  0.00
Modify  | 0          | 0          | 0          |   0.0 |  0.00
Other   |            | 0.000438   |            |       |  0.02

Nlocal:    7.9375 ave 8 max 7 min
Histogram: 1 0 0 0 0 0 0 0 0 15
Nghost:    819.812 ave 824 max 816 min
Histogram: 4 0 0 0 0 8 0 1 1 2
Neighs:    0 ave 0 max 0 min
Histogram: 16 0 0 0 0 0 0 0 0 0
FullNghs:  1602 ave 1623 max 1420 min
Histogram: 1 0 0 0 0 0 0 0 1 14

Total # of neighbors = 25632
Ave neighs/atom = 201.827
Neighbor list builds = 0
Dangerous builds = 0
Setting up quickmin style minimization ...
  Unit style    : metal
  Current step  : 0
Per MPI rank memory allocation (min/avg/max) = 4.736 | 4.737 | 4.737 Mbytes
Step Temp E_pair E_mol TotEng Press 
       0            0    -796.2231            0    -796.2231    10618.145 
       1   0.33030557    -796.2231            0   -796.21773    10622.526 
       2    2.5758665   -796.24083            0   -796.19888    10722.259 
       3    7.1910794    -796.2745            0   -796.15738    10938.663 
       4    13.947598   -796.31922            0   -796.09206    11296.453 
       5    21.296471   -796.36722            0   -796.02037    11800.505 
       6    26.178814   -796.41145            0   -795.98508    12389.197 
       7    29.307761   -796.45168            0   -795.97435    12938.934 
       8     38.27091   -796.49133            0   -795.86802    13353.923 
       9    50.219122   -796.53042            0   -795.71251    13587.289 
      10    63.832186   -796.56735            0   -795.52773    13793.851 
      11    73.900402   -796.60013            0   -795.39654    14016.768 
      12    73.665145    -796.6218            0   -795.42204    14022.165 
      13    3.7027815   -796.62736            0   -796.56706    13119.654 
      14    3.0752349   -796.63191            0   -796.58183    13141.707 
      15    2.8937103   -796.63622            0   -796.58909    13155.642 
      16    3.2402904   -796.64065            0   -796.58787    13176.716 
      17    3.6312523   -796.64516            0   -796.58602    13198.688 
      18    4.0108656   -796.64971            0   -796.58439    13221.367 
      19    4.3871735   -796.65427            0   -796.58282    13244.994 
      20     4.747528    -796.6588            0   -796.58148    13269.398 
      21    5.0936598   -796.66327            0   -796.58031    13294.544 
      22    5.4159307   -796.66764            0   -796.57943    13320.208 
      23    5.7180355    -796.6719            0   -796.57877     13346.33 
      24    5.9869131   -796.67602            0   -796.57852    13372.609 
      25    6.2343618   -796.67999            0   -796.57845    13399.202 
      26    6.4103536   -796.68378            0   -796.57938    13424.953 
      27    6.4641549   -796.68735            0   -796.58207    13449.554 
      28    5.4341261   -796.69041            0    -796.6019    13456.246 
      29    1.7296116   -796.69196            0   -796.66379    13419.936 
      30   0.18309591   -796.69245            0   -796.68947    13402.357 
      31   0.26332698   -796.69305            0   -796.68876     13407.57 
      32   0.32078348    -796.6937            0   -796.68847    13413.166 
      33   0.37798096    -796.6944            0   -796.68824    13419.228 
      34   0.43808806   -796.69514            0   -796.68801    13425.752 
      35   0.50100292   -796.69593            0   -796.68777     13432.72 
      36   0.56638235   -796.69675            0   -796.68753    13440.117 
      37   0.63381191   -796.69761            0   -796.68729    13447.916 
      38    0.7028717    -796.6985            0   -796.68705    13456.102 
      39   0.77313961   -796.69941            0   -796.68681    13464.648 
      40   0.84419824   -796.70034            0   -796.68659    13473.535 
      41   0.91563587   -796.70128            0   -796.68637    13482.738 
      42    0.9870467   -796.70224            0   -796.68617     13492.23 
      43    1.0580462   -796.70321            0   -796.68597    13501.987 
      44    1.1282652   -796.70417            0    -796.6858    13511.985 
      45    1.1973453   -796.70514            0   -796.68564    13522.198 
      46    1.2649512    -796.7061            0    -796.6855    13532.593 
      47    1.3307615   -796.70706            0   -796.68538     13543.15 
      48    1.3944803     -796.708            0   -796.68529    13553.837 
      49     1.455822   -796.70892            0   -796.68521    13564.635 
      50    1.5145299   -796.70983            0   -796.68516    13575.514 
      51    1.5703355   -796.71072            0   -796.68514    13586.454 
      52     1.623036   -796.71158            0   -796.68515    13597.413 
      53    1.6723385   -796.71242            0   -796.68518    13608.411 
      54    1.7181552   -796.71322            0   -796.68524    13619.286 
      55    1.7600518     -796.714            0   -796.68533    13630.462 
      56    1.7983848   -796.71474            0   -796.68545    13640.273 
      57    1.8390296   -796.71544            0   -796.68549    13655.104 
      58    1.9244867    -796.7159            0   -796.68456    13649.554 
      59   0.58477015   -796.71619            0   -796.70667    13650.087 
      60  0.031338222   -796.71627            0   -796.71576    13641.591 
      61  0.031870166   -796.71634            0   -796.71582    13641.748 
      62  0.036974582   -796.71643            0   -796.71583      13642.8 
      63  0.044084706   -796.71652            0    -796.7158    13644.278 
      64  0.051949246   -796.71662            0   -796.71577    13645.959 
      65   0.06035844   -796.71673            0   -796.71574    13647.778 
      66  0.069272065   -796.71684            0   -796.71571    13649.721 
      67  0.078655469   -796.71696            0   -796.71568    13651.788 
      68  0.088471055   -796.71708            0   -796.71564    13653.977 
      69  0.098679704   -796.71722            0   -796.71561    13656.285 
      70   0.10924068   -796.71735            0   -796.71557    13658.708 
      71   0.12011178   -796.71749            0   -796.71554    13661.241 
      72   0.13124959   -796.71764            0    -796.7155     13663.88 
      73   0.14260958   -796.71779            0   -796.71547    13666.621 
      74   0.15414624   -796.71794            0   -796.71543    13669.457 
      75   0.16581327    -796.7181            0    -796.7154    13672.383 
      76   0.17756378   -796.71825            0   -796.71536    13675.395 
      77    0.1893506   -796.71841            0   -796.71533    13678.485 
      78     0.201126   -796.71857            0    -796.7153     13681.65 
      79   0.21284248   -796.71874            0   -796.71527    13684.883 
      80   0.22445291    -796.7189            0   -796.71524    13688.176 
      81    0.2359092   -796.71906            0   -796.71522    13691.525 
      82     0.247164   -796.71922            0    -796.7152    13694.922 
      83   0.25817056   -796.71938            0   -796.71518    13698.362 
      84   0.26888251   -796.71954            0   -796.71516    13701.836 
      85   0.27925464    -796.7197            0   -796.71515    13705.338 
      86   0.28924221   -796.71985            0   -796.71514    13708.861 
      87   0.29880478      -796.72            0   -796.71514    13712.399 
      88   0.30788483   -796.72015            0   -796.71514    13715.938 
      89   0.31645947    -796.7203            0   -796.71514    13719.499 
      90   0.32404587   -796.72044            0   -796.71516    13722.967 
      91    0.3264627   -796.72058            0   -796.71526    13726.626 
      92   0.25532308   -796.72069            0   -796.71653    13727.803 
      93  0.016150709   -796.72072            0   -796.72046    13725.983 
      94  0.012451169   -796.72074            0   -796.72054    13726.506 
      95  0.014490906   -796.72077            0   -796.72053    13727.193 
      96  0.016665045    -796.7208            0   -796.72052    13727.932 
      97   0.01896258   -796.72082            0   -796.72052     13728.72 
      98  0.021376115   -796.72086            0   -796.72051    13729.556 
      99  0.023897704   -796.72089            0    -796.7205    13730.438 
     100   0.02651904   -796.72092            0   -796.72049    13731.366 
     101  0.029231465   -796.72096            0   -796.72048    13732.338 
     102  0.032026004   -796.72099            0   -796.72047    13733.353 
     103  0.034893405   -796.72103            0   -796.72046    13734.407 
     104  0.037824139   -796.72107            0   -796.72045    13735.501 
     105  0.040808461   -796.72111            0   -796.72044    13736.632 
     106   0.04383645   -796.72115            0   -796.72043    13737.798 
     107  0.046898033   -796.72119            0   -796.72042    13738.997 
     108  0.049983005   -796.72123            0   -796.72041    13740.228 
     109  0.053081124   -796.72127            0    -796.7204    13741.488 
     110  0.056182091   -796.72131            0    -796.7204    13742.774 
     111  0.059275565   -796.72135            0   -796.72039    13744.085 
     112  0.062351344    -796.7214            0   -796.72038    13745.419 
     113  0.065399251   -796.72144            0   -796.72037    13746.774 
     114  0.068409209   -796.72148            0   -796.72037    13748.147 
     115  0.071371406   -796.72152            0   -796.72036    13749.535 
     116  0.074275755   -796.72157            0   -796.72036    13750.937 
     117  0.077112122   -796.72161            0   -796.72035    13752.349 
     118  0.079859254   -796.72165            0   -796.72035    13753.771 
     119  0.082406732   -796.72169            0   -796.72035    13755.195 
     120  0.083593232   -796.72173            0   -796.72037    13756.597 
     121  0.071672926   -796.72177            0    -796.7206    13757.698 
     122  0.014960228   -796.72179            0   -796.72154    13757.512 
     123 0.00097944216   -796.72179            0   -796.72177    13757.453 
     124 0.0015947492    -796.7218            0   -796.72177    13757.629 
     125 0.0022061704    -796.7218            0   -796.72177    13757.838 
     126 0.0027740865   -796.72181            0   -796.72176    13758.073 
     127 0.0033694808   -796.72181            0   -796.72176    13758.333 
     128 0.0040146987   -796.72182            0   -796.72176    13758.618 
     129 0.0047104729   -796.72183            0   -796.72175    13758.927 
     130   0.00545494   -796.72184            0   -796.72175    13759.261 
     131 0.0062460154   -796.72185            0   -796.72175    13759.618 
     132 0.0070814831   -796.72186            0   -796.72175    13759.998 
     133 0.0079589997   -796.72187            0   -796.72174      13760.4 
     134 0.0088761025   -796.72188            0   -796.72174    13760.824 
     135 0.0098302167   -796.72189            0   -796.72173    13761.269 
     136  0.010818665   -796.72191            0   -796.72173    13761.735 
     137  0.011838677   -796.72192            0   -796.72173    13762.221 
     138  0.012887398   -796.72193            0   -796.72172    13762.725 
     139    0.0139619   -796.72195            0   -796.72172    13763.248 
     140  0.015059193   -796.72196            0   -796.72172    13763.788 
     141  0.016176237   -796.72198            0   -796.72171    13764.344 
     142  0.017309953   -796.72199            0   -796.72171    13764.916 
     143  0.018457215     -796.722            0    -796.7217    13765.503 
     144  0.019614895   -796.72202            0    -796.7217    13766.103 
     145  0.020779853   -796.72204            0    -796.7217    13766.717 
     146  0.021948938   -796.72205            0   -796.72169    13767.342 
     147   0.02311904   -796.72207            0   -796.72169    13767.978 
     148  0.024287066   -796.72208            0   -796.72169    13768.625 
     149  0.025449963    -796.7221            0   -796.72168     13769.28 
     150  0.026604728   -796.72211            0   -796.72168    13769.944 
     151  0.027748434   -796.72213            0   -796.72168    13770.614 
     152  0.028878203   -796.72215            0   -796.72168     13771.29 
     153  0.029991247   -796.72216            0   -796.72167    13771.971 
     154  0.031084531   -796.72218            0   -796.72167    13772.656 
     155  0.032153558   -796.72219            0   -796.72167    13773.343 
     156  0.033170848   -796.72221            0   -796.72167    13774.029 
     157  0.033862013   -796.72223            0   -796.72167    13774.714 
     158   0.03098242   -796.72224            0   -796.72174    13775.289 
     159  0.009510455   -796.72225            0   -796.72209    13775.382 
     160 0.0001292421   -796.72225            0   -796.72225    13775.283 
     161 0.00023209026   -796.72225            0   -796.72225    13775.324 
     162 0.00039308117   -796.72225            0   -796.72224    13775.382 
     163 0.00059229044   -796.72225            0   -796.72224    13775.459 
     164 0.0007918413   -796.72225            0   -796.72224     13775.55 
     165 0.00099373358   -796.72226            0   -796.72224    13775.655 
     166 0.0012110121   -796.72226            0   -796.72224    13775.772 
     167 0.0014475371   -796.72226            0   -796.72224      13775.9 
     168 0.0017033439   -796.72227            0   -796.72224     13776.04 
     169 0.0019778786   -796.72227            0   -796.72224     13776.19 
     170 0.0022705065   -796.72227            0   -796.72223    13776.351 
     171 0.0025805496   -796.72228            0   -796.72223    13776.523 
     172 0.0029072943   -796.72228            0   -796.72223    13776.705 
     173 0.0032499771   -796.72228            0   -796.72223    13776.898 
     174 0.0036078039   -796.72229            0   -796.72223      13777.1 
     175 0.0039799479   -796.72229            0   -796.72223    13777.311 
     176 0.0043655534    -796.7223            0   -796.72223    13777.532 
     177 0.0047637333    -796.7223            0   -796.72222    13777.761 
     178 0.0051735781   -796.72231            0   -796.72222    13777.999 
     179 0.0055941609   -796.72231            0   -796.72222    13778.245 
     180  0.006024524   -796.72232            0   -796.72222    13778.499 
     181 0.0064636987   -796.72232            0   -796.72222     13778.76 
     182 0.0069107027   -796.72233            0   -796.72222    13779.028 
     183 0.0073645451   -796.72233            0   -796.72221    13779.303 
     184 0.0078242269   -796.72234            0   -796.72221    13779.583 
     185 0.0082887465   -796.72235            0   -796.72221     13779.87 
     186 0.0087571121   -796.72235            0   -796.72221    13780.162 
     187 0.0092283106   -796.72236            0   -796.72221    13780.459 
     188 0.0097013454   -796.72236            0   -796.72221     13780.76 
     189  0.010175227   -796.72237            0   -796.72221    13781.066 
     190  0.010648981   -796.72238            0    -796.7222    13781.375 
     191  0.011121634   -796.72238            0    -796.7222    13781.687 
     192  0.011592254   -796.72239            0    -796.7222    13782.001 
     193  0.012059836    -796.7224            0    -796.7222    13782.318 
     194  0.012523208    -796.7224            0    -796.7222    13782.636 
     195  0.012977723   -796.72241            0    -796.7222    13782.956 
     196  0.013384727   -796.72241            0    -796.7222    13783.275 
     197  0.013291857   -796.72242            0    -796.7222    13783.582 
     198 0.0087266854   -796.72243            0   -796.72228    13783.766 
     199 0.00044240112   -796.72243            0   -796.72242    13783.707 
     200 0.00076050787   -796.72243            0   -796.72242     13783.78 
     201 0.00087762856   -796.72243            0   -796.72242    13783.855 
     202 0.0010083976   -796.72243            0   -796.72241    13783.935 
     203 0.0011472677   -796.72243            0   -796.72241     13784.02 
     204 0.0012939155   -796.72243            0   -796.72241    13784.111 
     205 0.0014480508   -796.72244            0   -796.72241    13784.207 
     206 0.0016093713   -796.72244            0   -796.72241    13784.308 
     207 0.0017775607   -796.72244            0   -796.72241    13784.413 
     208 0.0019522902   -796.72244            0   -796.72241    13784.523 
     209   0.00213322   -796.72244            0   -796.72241    13784.637 
     210 0.0023199983   -796.72245            0   -796.72241    13784.756 
     211 0.0025122638   -796.72245            0   -796.72241    13784.878 
     212  0.002709646   -796.72245            0   -796.72241    13785.005 
     213  0.002911767   -796.72245            0   -796.72241    13785.135 
     214 0.0031182395   -796.72246            0   -796.72241    13785.269 
     215 0.0033286721   -796.72246            0    -796.7224    13785.406 
     216 0.0035426678   -796.72246            0    -796.7224    13785.546 
     217 0.0037598256   -796.72246            0    -796.7224     13785.69 
     218 0.0039797391   -796.72247            0    -796.7224    13785.836 
     219 0.0042019984   -796.72247            0    -796.7224    13785.984 
     220 0.0044261773   -796.72247            0    -796.7224    13786.135 
     221 0.0046517799   -796.72248            0    -796.7224    13786.287 
     222 0.0048778465   -796.72248            0    -796.7224    13786.442 
     223 0.0051003018   -796.72248            0    -796.7224    13786.598 
     224 0.0052913079   -796.72248            0    -796.7224    13786.754 
     225 0.0052362606   -796.72249            0    -796.7224    13786.904 
     226 0.0036620941   -796.72249            0   -796.72243    13787.008 
     227 0.00055156513   -796.72249            0   -796.72248    13787.012 
     228 0.00041473043   -796.72249            0   -796.72248     13787.05 
     229 0.00048103495   -796.72249            0   -796.72248    13787.094 
     230 0.00055390825   -796.72249            0   -796.72248     13787.14 
     231 0.00063142866   -796.72249            0   -796.72248     13787.19 
     232 0.00071344087   -796.72249            0   -796.72248    13787.242 
     233 0.00079979929    -796.7225            0   -796.72248    13787.298 
     234 0.00089035096    -796.7225            0   -796.72248    13787.356 
     235 0.00098493578    -796.7225            0   -796.72248    13787.418 
     236 0.0010833864    -796.7225            0   -796.72248    13787.481 
     237 0.0011855291    -796.7225            0   -796.72248    13787.548 
     238 0.0012911838    -796.7225            0   -796.72248    13787.617 
     239 0.0014001643    -796.7225            0   -796.72248    13787.688 
     240 0.0015122792    -796.7225            0   -796.72248    13787.762 
     241 0.0016273321   -796.72251            0   -796.72248    13787.838 
     242 0.0017451217   -796.72251            0   -796.72248    13787.916 
     243 0.0018654432   -796.72251            0   -796.72248    13787.996 
     244 0.0019880883   -796.72251            0   -796.72248    13788.078 
     245 0.0021128435   -796.72251            0   -796.72248    13788.161 
     246 0.0022394942   -796.72251            0   -796.72248    13788.246 
     247 0.0023678223   -796.72251            0   -796.72248    13788.333 
     248 0.0024976038   -796.72252            0   -796.72247     13788.42 
     249 0.0026286041   -796.72252            0   -796.72247     13788.51 
     250 0.0027605219   -796.72252            0   -796.72247      13788.6 
     251 0.0028926263   -796.72252            0   -796.72247    13788.691 
     252 0.0030209721   -796.72252            0   -796.72247    13788.782 
     253  0.003115891   -796.72252            0   -796.72247    13788.874 
     254 0.0029414477   -796.72253            0   -796.72248    13788.958 
     255 0.0014700182   -796.72253            0    -796.7225    13788.998 
     256 0.00012172546   -796.72253            0   -796.72252    13788.996 
     257 0.0001946486   -796.72253            0   -796.72252    13789.017 
     258 0.00023144356   -796.72253            0   -796.72252     13789.04 
     259 0.00026995585   -796.72253            0   -796.72252    13789.065 
     260 0.00031120522   -796.72253            0   -796.72252    13789.091 
     261 0.00035512128   -796.72253            0   -796.72252     13789.12 
     262 0.00040163225   -796.72253            0   -796.72252     13789.15 
     263 0.00045066199   -796.72253            0   -796.72252    13789.182 
     264 0.00050213005   -796.72253            0   -796.72252    13789.215 
     265 0.00055595193   -796.72253            0   -796.72252     13789.25 
     266 0.00061203913   -796.72253            0   -796.72252    13789.286 
     267 0.00067029942   -796.72253            0   -796.72252    13789.324 
     268 0.00073063694   -796.72253            0   -796.72252    13789.364 
     269 0.0007929524   -796.72253            0   -796.72252    13789.404 
     270 0.00085714328   -796.72253            0   -796.72252    13789.446 
     271 0.00092310271   -796.72254            0   -796.72252     13789.49 
     272 0.00099072335   -796.72254            0   -796.72252    13789.534 
     273 0.0010598941   -796.72254            0   -796.72252     13789.58 
     274  0.001130501   -796.72254            0   -796.72252    13789.626 
     275 0.0012024278   -796.72254            0   -796.72252    13789.674 
     276 0.0012755564   -796.72254            0   -796.72252    13789.722 
     277 0.0013497667   -796.72254            0   -796.72252    13789.772 
     278 0.0014249363   -796.72254            0   -796.72252    13789.822 
     279 0.0015009415   -796.72254            0   -796.72252    13789.872 
     280 0.0015776575   -796.72254            0   -796.72252    13789.924 
     281 0.0016549566   -796.72254            0   -796.72252    13789.975 
     282 0.0017327064   -796.72255            0   -796.72252    13790.028 
     283 0.0018107415   -796.72255            0   -796.72252     13790.08 
     284 0.0018886163   -796.72255            0   -796.72252    13790.133 
     285 0.0019631844   -796.72255            0   -796.72252    13790.186 
     286 0.0020032109   -796.72255            0   -796.72252    13790.238 
     287 0.0017107484   -796.72255            0   -796.72252    13790.281 
     288 0.00037343446   -796.72255            0   -796.72254    13790.284 
     289 3.5644289e-05   -796.72255            0   -796.72255    13790.285 
     290 5.5957902e-05   -796.72255            0   -796.72255    13790.293 
     291 7.311582e-05   -796.72255            0   -796.72255    13790.302 
     292 8.9518555e-05   -796.72255            0   -796.72255    13790.312 
     293 0.00010719143   -796.72255            0   -796.72255    13790.323 
     294 0.00012635959   -796.72255            0   -796.72255    13790.335 
     295 0.00014700297   -796.72255            0   -796.72255    13790.348 
     296 0.00016908995   -796.72255            0   -796.72255    13790.362 
     297 0.00019258646   -796.72255            0   -796.72255    13790.376 
     298 0.00021745615   -796.72255            0   -796.72255    13790.392 
     299 0.0002436604   -796.72255            0   -796.72255    13790.408 
     300 0.0002711584   -796.72255            0   -796.72255    13790.425 
     301 0.00029990722   -796.72255            0   -796.72255    13790.443 
     302 0.00032986184   -796.72255            0   -796.72255    13790.462 
     303 0.00036097527   -796.72255            0   -796.72255    13790.482 
     304 0.00039319856   -796.72255            0   -796.72255    13790.502 
     305 0.00042648093   -796.72256            0   -796.72255    13790.523 
     306 0.00046076979   -796.72256            0   -796.72255    13790.544 
     307 0.00049601085   -796.72256            0   -796.72255    13790.566 
     308 0.00053214818   -796.72256            0   -796.72255    13790.589 
     309 0.00056912429   -796.72256            0   -796.72255    13790.612 
     310 0.00060688019   -796.72256            0   -796.72255    13790.636 
     311 0.0006453554   -796.72256            0   -796.72255     13790.66 
     312 0.00068448814   -796.72256            0   -796.72255    13790.684 
     313 0.00072421554   -796.72256            0   -796.72255    13790.709 
     314 0.00076447343   -796.72256            0   -796.72255    13790.735 
     315 0.00080519652   -796.72256            0   -796.72255     13790.76 
     316 0.00084631848   -796.72256            0   -796.72255    13790.786 
     317 0.00088777196   -796.72256            0   -796.72255    13790.812 
     318 0.00092948875   -796.72256            0   -796.72255    13790.838 
     319 0.0009713997   -796.72256            0   -796.72255    13790.864 
     320 0.0010134353   -796.72256            0   -796.72255    13790.891 
     321  0.001055524   -796.72256            0   -796.72255    13790.917 
     322 0.0010975915   -796.72256            0   -796.72255    13790.943 
     323 0.0011395142   -796.72256            0   -796.72255     13790.97 
     324  0.001180608   -796.72256            0   -796.72254    13790.996 
     325  0.001212043   -796.72256            0   -796.72254    13791.021 
     326 0.0011126284   -796.72257            0   -796.72255    13791.045 
     327 0.00028570262   -796.72257            0   -796.72256    13791.043 
     328 1.3869826e-06   -796.72257            0   -796.72257     13791.04 
     329 2.834382e-06   -796.72257            0   -796.72257    13791.041 
     330 5.288279e-06   -796.72257            0   -796.72257    13791.043 
     331 9.2477355e-06   -796.72257            0   -796.72257    13791.045 
     332 1.4744622e-05   -796.72257            0   -796.72257    13791.048 
     333 2.0958446e-05   -796.72257            0   -796.72257    13791.051 
     334 2.7412607e-05   -796.72257            0   -796.72257    13791.054 
     335 3.4345286e-05   -796.72257            0   -796.72257    13791.058 
     336 4.1959944e-05   -796.72257            0   -796.72257    13791.062 
     337 5.0297884e-05   -796.72257            0   -796.72257    13791.067 
     338 5.9352174e-05   -796.72257            0   -796.72257    13791.072 
     339 6.9109529e-05   -796.72257            0   -796.72256    13791.077 
     340 7.9555358e-05   -796.72257            0   -796.72256    13791.083 
     341 9.0673957e-05   -796.72257            0   -796.72256    13791.089 
     342 0.00010244853   -796.72257            0   -796.72256    13791.096 
     343 0.00011486121   -796.72257            0   -796.72256    13791.103 
     344 0.00012789306   -796.72257            0   -796.72256     13791.11 
     345 0.00014152416   -796.72257            0   -796.72256    13791.117 
     346 0.00015573354   -796.72257            0   -796.72256    13791.125 
     347 0.00017049927   -796.72257            0   -796.72256    13791.133 
     348 0.00018579848   -796.72257            0   -796.72256    13791.142 
     349 0.00020160737   -796.72257            0   -796.72256    13791.151 
     350 0.00021790125   -796.72257            0   -796.72256     13791.16 
     351 0.00023465454   -796.72257            0   -796.72256    13791.169 
     352 0.00025184085   -796.72257            0   -796.72256    13791.178 
     353 0.00026943297   -796.72257            0   -796.72256    13791.188 
     354 0.00028740292   -796.72257            0   -796.72256    13791.198 
     355 0.00030572196   -796.72257            0   -796.72256    13791.208 
     356 0.00032436062   -796.72257            0   -796.72256    13791.218 
     357 0.00034328872   -796.72257            0   -796.72256    13791.228 
     358 0.0003624754   -796.72257            0   -796.72256    13791.238 
     359 0.00038188928   -796.72257            0   -796.72256    13791.249 
     360 0.00040149832   -796.72257            0   -796.72256    13791.259 
     361 0.00042126989   -796.72257            0   -796.72256     13791.27 
     362 0.00044117078   -796.72257            0   -796.72256     13791.28 
     363 0.00046116723   -796.72257            0   -796.72256    13791.291 
     364 0.00048122507   -796.72257            0   -796.72256    13791.301 
     365 0.00050130898   -796.72257            0   -796.72256    13791.312 
     366 0.00052138157   -796.72257            0   -796.72256    13791.322 
     367 0.00054136951   -796.72257            0   -796.72256    13791.332 
     368 0.00056080991   -796.72257            0   -796.72256    13791.343 
     369 0.00057375923   -796.72257            0   -796.72256    13791.353 
     370 0.0005042352   -796.72257            0   -796.72256    13791.361 
     371 9.4376945e-05   -796.72257            0   -796.72257    13791.359 
     372 2.5911939e-06   -796.72257            0   -796.72257    13791.358 
     373 4.5463237e-06   -796.72257            0   -796.72257    13791.359 
     374 7.2821998e-06   -796.72257            0   -796.72257     13791.36 
     375 1.0366648e-05   -796.72257            0   -796.72257    13791.361 
     376 1.3545843e-05   -796.72257            0   -796.72257    13791.362 
     377 1.6949819e-05   -796.72257            0   -796.72257    13791.364 
     378 2.0685643e-05   -796.72257            0   -796.72257    13791.365 
     379 2.4774309e-05   -796.72257            0   -796.72257    13791.367 
     380 2.9212308e-05   -796.72257            0   -796.72257    13791.369 
     381 3.3993062e-05   -796.72257            0   -796.72257    13791.371 
     382 3.9109367e-05   -796.72257            0   -796.72257    13791.373 
     383 4.4553475e-05   -796.72257            0   -796.72257    13791.376 
     384 5.0317094e-05   -796.72257            0   -796.72257    13791.378 
     385 5.6391398e-05   -796.72257            0   -796.72257    13791.381 
     386 6.2767037e-05   -796.72257            0   -796.72257    13791.384 
     387 6.9434143e-05   -796.72257            0   -796.72257    13791.387 
     388 7.6382346e-05   -796.72257            0   -796.72257     13791.39 
     389 8.3600782e-05   -796.72257            0   -796.72257    13791.393 
     390 9.1078105e-05   -796.72257            0   -796.72257    13791.396 
     391 9.8802499e-05   -796.72257            0   -796.72257    13791.399 
     392 0.00010676169   -796.72257            0   -796.72257    13791.402 
     393 0.00011494295   -796.72257            0   -796.72257    13791.406 
     394 0.00012333314   -796.72257            0   -796.72257    13791.409 
     395 0.00013191867   -796.72257            0   -796.72257    13791.413 
     396 0.00014068557   -796.72257            0   -796.72257    13791.416 
     397 0.00014961945   -796.72257            0   -796.72257     13791.42 
     398 0.00015870556   -796.72257            0   -796.72257    13791.424 
     399 0.00016792876   -796.72257            0   -796.72257    13791.427 
     400 0.00017727357   -796.72257            0   -796.72257    13791.431 
     401 0.00018672415   -796.72257            0   -796.72257    13791.434 
     402 0.00019626434   -796.72257            0   -796.72257    13791.438 
     403 0.00020587766   -796.72257            0   -796.72257    13791.442 
     404 0.00021554731   -796.72257            0   -796.72257    13791.445 
     405 0.00022525626   -796.72258            0   -796.72257    13791.449 
     406 0.00023498705   -796.72258            0   -796.72257    13791.452 
     407 0.00024472206   -796.72258            0   -796.72257    13791.456 
     408 0.00025444291   -796.72258            0   -796.72257    13791.459 
     409 0.00026413301   -796.72258            0   -796.72257    13791.462 
     410 0.00027376441   -796.72258            0   -796.72257    13791.465 
     411 0.00028330002   -796.72258            0   -796.72257    13791.469 
     412 0.00029197648   -796.72258            0   -796.72257    13791.469 
     413 0.00028948415   -796.72258            0   -796.72257    13791.485 
     414 0.00015990025   -796.72258            0   -796.72257    13791.447 
     415 1.1310627e-06   -796.72258            0   -796.72258    13791.451 
     416 1.9735823e-06   -796.72258            0   -796.72258    13791.458 
     417 3.3900444e-06   -796.72258            0   -796.72258    13791.465 
     418 5.2554978e-06   -796.72258            0   -796.72258     13791.47 
     419 6.9859156e-06   -796.72258            0   -796.72258    13791.473 
     420 8.667472e-06   -796.72258            0   -796.72258    13791.474 
     421 1.0488186e-05   -796.72258            0   -796.72258    13791.474 
     422 1.2473913e-05   -796.72258            0   -796.72258    13791.475 
     423 1.4622026e-05   -796.72258            0   -796.72258    13791.475 
     424 1.6928987e-05   -796.72258            0   -796.72258    13791.476 
     425 1.9391181e-05   -796.72258            0   -796.72258    13791.476 
     426 2.2004752e-05   -796.72258            0   -796.72258    13791.477 
     427 2.4765581e-05   -796.72258            0   -796.72258    13791.478 
     428 2.7669288e-05   -796.72258            0   -796.72258    13791.478 
     429 3.071124e-05   -796.72258            0   -796.72258    13791.479 
     430 3.3886554e-05   -796.72258            0   -796.72258    13791.479 
     431 3.7190102e-05   -796.72258            0   -796.72258     13791.48 
     432 4.0616515e-05   -796.72258            0   -796.72258    13791.481 
     433 4.4160189e-05   -796.72258            0   -796.72258    13791.482 
     434 4.7815291e-05   -796.72258            0   -796.72258    13791.482 
     435 5.1575762e-05   -796.72258            0   -796.72258    13791.483 
     436 5.5435327e-05   -796.72258            0   -796.72258    13791.484 
     437 5.9387494e-05   -796.72258            0   -796.72258    13791.484 
     438 6.3425566e-05   -796.72258            0   -796.72258    13791.485 
     439 6.7542644e-05   -796.72258            0   -796.72258    13791.486 
     440 7.1731633e-05   -796.72258            0   -796.72258    13791.486 
     441 7.5985248e-05   -796.72258            0   -796.72258    13791.487 
     442 8.0296018e-05   -796.72258            0   -796.72258    13791.488 
     443 8.4656296e-05   -796.72258            0   -796.72258    13791.488 
     444 8.9058261e-05   -796.72258            0   -796.72258    13791.489 
     445 9.3493925e-05   -796.72258            0   -796.72258    13791.489 
     446 9.7955136e-05   -796.72258            0   -796.72258     13791.49 
     447 0.00010243358   -796.72258            0   -796.72258     13791.49 
     448 0.00010692081   -796.72258            0   -796.72258    13791.491 
     449 0.00011140795   -796.72258            0   -796.72258    13791.491 
     450 0.00011588466   -796.72258            0   -796.72258    13791.491 
     451 0.00012031858   -796.72258            0   -796.72258    13791.491 
     452 0.0001244126   -796.72258            0   -796.72258    13791.492 
     453 0.00012412587   -796.72258            0   -796.72258     13791.49 
     454 7.882203e-05   -796.72258            0   -796.72258    13791.494 
     455 2.2773932e-06   -796.72258            0   -796.72258    13791.491 
     456 4.6295828e-06   -796.72258            0   -796.72258     13791.49 
     457 5.8523263e-06   -796.72258            0   -796.72258     13791.49 
     458 6.9204186e-06   -796.72258            0   -796.72258     13791.49 
     459 8.0728955e-06   -796.72258            0   -796.72258    13791.489 
     460 9.3073279e-06   -796.72258            0   -796.72258    13791.489 
     461 1.0621701e-05   -796.72258            0   -796.72258    13791.489 
     462 1.2013862e-05   -796.72258            0   -796.72258    13791.489 
     463 1.3481515e-05   -796.72258            0   -796.72258    13791.489 
     464 1.5022225e-05   -796.72258            0   -796.72258    13791.489 
     465 1.663342e-05   -796.72258            0   -796.72258    13791.489 
     466 1.831239e-05   -796.72258            0   -796.72258    13791.489 
     467 2.0056292e-05   -796.72258            0   -796.72258    13791.489 
     468 2.1862155e-05   -796.72258            0   -796.72258    13791.489 
     469 2.3726877e-05   -796.72258            0   -796.72258    13791.488 
     470 2.5647234e-05   -796.72258            0   -796.72258    13791.488 
     471 2.7619876e-05   -796.72258            0   -796.72258    13791.488 
     472 2.9641339e-05   -796.72258            0   -796.72258    13791.488 
     473 3.170804e-05   -796.72258            0   -796.72258    13791.488 
     474 3.3816283e-05   -796.72258            0   -796.72258    13791.487 
     475 3.596226e-05   -796.72258            0   -796.72258    13791.487 
     476 3.8142062e-05   -796.72258            0   -796.72258    13791.487 
     477 4.0351674e-05   -796.72258            0   -796.72258    13791.486 
     478 4.2586976e-05   -796.72258            0   -796.72258    13791.486 
     479 4.4843759e-05   -796.72258            0   -796.72258    13791.485 
     480 4.7117709e-05   -796.72258            0   -796.72258    13791.485 
     481 4.9404386e-05   -796.72258            0   -796.72258    13791.484 
     482 5.1698907e-05   -796.72258            0   -796.72258    13791.484 
     483 5.3993359e-05   -796.72258            0   -796.72258    13791.483 
     484 5.6249953e-05   -796.72258            0   -796.72258    13791.482 
     485 5.8115159e-05   -796.72258            0   -796.72258    13791.482 
     486 5.5795006e-05   -796.72258            0   -796.72258     13791.48 
     487 2.6398453e-05   -796.72258            0   -796.72258     13791.48 
     488 7.5506995e-07   -796.72258            0   -796.72258     13791.48 
     489 1.4345102e-06   -796.72258            0   -796.72258    13791.479 
     490 2.1180114e-06   -796.72258            0   -796.72258    13791.479 
     491 2.6469499e-06   -796.72258            0   -796.72258    13791.479 
     492 3.1939394e-06   -796.72258            0   -796.72258    13791.479 
     493 3.7884937e-06   -796.72258            0   -796.72258    13791.478 
     494 4.4304642e-06   -796.72258            0   -796.72258    13791.478 
     495 5.1187686e-06   -796.72258            0   -796.72258    13791.478 
     496 5.8522372e-06   -796.72258            0   -796.72258    13791.478 
     497 6.6296144e-06   -796.72258            0   -796.72258    13791.477 
     498 7.4495602e-06   -796.72258            0   -796.72258    13791.477 
     499 8.3106512e-06   -796.72258            0   -796.72258    13791.477 
     500 9.2113818e-06   -796.72258            0   -796.72258    13791.476 
     501 1.0150166e-05   -796.72258            0   -796.72258    13791.476 
     502 1.112534e-05   -796.72258            0   -796.72258    13791.475 
     503 1.213516e-05   -796.72258            0   -796.72258    13791.475 
     504 1.3177808e-05   -796.72258            0   -796.72258    13791.475 
     505 1.4251393e-05   -796.72258            0   -796.72258    13791.474 
     506 1.5353949e-05   -796.72258            0   -796.72258    13791.473 
     507 1.6483442e-05   -796.72258            0   -796.72258    13791.473 
     508 1.7637767e-05   -796.72258            0   -796.72258    13791.472 
     509 1.8814755e-05   -796.72258            0   -796.72258    13791.472 
     510 2.0012169e-05   -796.72258            0   -796.72258    13791.471 
     511 2.1227712e-05   -796.72258            0   -796.72258     13791.47 
     512 2.2459024e-05   -796.72258            0   -796.72258     13791.47 
     513 2.3703687e-05   -796.72258            0   -796.72258    13791.469 
     514 2.4959226e-05   -796.72258            0   -796.72258    13791.468 
     515 2.6223112e-05   -796.72258            0   -796.72258    13791.467 
     516 2.7492761e-05   -796.72258            0   -796.72258    13791.466 
     517 2.8765538e-05   -796.72258            0   -796.72258    13791.465 
     518 3.0038759e-05   -796.72258            0   -796.72258    13791.464 
     519 3.1309584e-05   -796.72258            0   -796.72258    13791.463 
     520 3.2574368e-05   -796.72258            0   -796.72258    13791.462 
     521 3.3818477e-05   -796.72258            0   -796.72258    13791.461 
     522 3.488878e-05   -796.72258            0   -796.72258     13791.46 
     523 3.3733103e-05   -796.72258            0   -796.72258    13791.459 
     524 1.506581e-05   -796.72258            0   -796.72258    13791.458 
     525 1.2737563e-07   -796.72258            0   -796.72258    13791.458 
     526 2.4000726e-07   -796.72258            0   -796.72258    13791.458 
     527 4.3703501e-07   -796.72258            0   -796.72258    13791.458 
     528 6.9725192e-07   -796.72258            0   -796.72258    13791.458 
     529 9.4676829e-07   -796.72258            0   -796.72258    13791.457 
     530 1.1938307e-06   -796.72258            0   -796.72258    13791.457 
     531 1.4621512e-06   -796.72258            0   -796.72258    13791.457 
     532 1.7559774e-06   -796.72258            0   -796.72258    13791.457 
     533 2.0750663e-06   -796.72258            0   -796.72258    13791.456 
     534 2.4188543e-06   -796.72258            0   -796.72258    13791.456 
     535 2.7867252e-06   -796.72258            0   -796.72258    13791.456 
     536 3.1780145e-06   -796.72258            0   -796.72258    13791.455 
     537  3.59201e-06   -796.72258            0   -796.72258    13791.455 
     538 4.0279523e-06   -796.72258            0   -796.72258    13791.455 
     539 4.4850363e-06   -796.72258            0   -796.72258    13791.454 
     540 4.9624114e-06   -796.72258            0   -796.72258    13791.454 
     541 5.4591824e-06   -796.72258            0   -796.72258    13791.453 
     542 5.9744108e-06   -796.72258            0   -796.72258    13791.453 
     543 6.5071151e-06   -796.72258            0   -796.72258    13791.452 
     544 7.0562725e-06   -796.72258            0   -796.72258    13791.452 
     545 7.6208194e-06   -796.72258            0   -796.72258    13791.451 
     546 8.1996526e-06   -796.72258            0   -796.72258     13791.45 
     547 8.7916305e-06   -796.72258            0   -796.72258     13791.45 
     548 9.3955742e-06   -796.72258            0   -796.72258    13791.449 
     549 1.0010268e-05   -796.72258            0   -796.72258    13791.448 
     550 1.0634463e-05   -796.72258            0   -796.72258    13791.447 
     551 1.1266874e-05   -796.72258            0   -796.72258    13791.447 
     552 1.1906186e-05   -796.72258            0   -796.72258    13791.446 
     553 1.255105e-05   -796.72258            0   -796.72258    13791.445 
     554 1.3200088e-05   -796.72258            0   -796.72258    13791.444 
     555 1.3851896e-05   -796.72258            0   -796.72258    13791.443 
     556 1.4505035e-05   -796.72258            0   -796.72258    13791.442 
     557 1.5158049e-05   -796.72258            0   -796.72258    13791.441 
     558 1.5809369e-05   -796.72258            0   -796.72258     13791.44 
     559 1.6456889e-05   -796.72258            0   -796.72258    13791.439 
     560 1.709086e-05   -796.72258            0   -796.72258    13791.438 
     561 1.7606526e-05   -796.72258            0   -796.72258    13791.437 
     562 1.6631715e-05   -796.72258            0   -796.72258    13791.436 
     563 5.938583e-06   -796.72258            0   -796.72258    13791.436 
     564 4.0460818e-08   -796.72258            0   -796.72258    13791.435 
     565 7.8231403e-08   -796.72258            0   -796.72258    13791.435 
     566 1.4497743e-07   -796.72258            0   -796.72258    13791.435 
     567 2.480377e-07   -796.72258            0   -796.72258    13791.435 
     568 3.6847993e-07   -796.72258            0   -796.72258    13791.435 
     569 4.8930203e-07   -796.72258            0   -796.72258    13791.435 
     570 6.1760774e-07   -796.72258            0   -796.72258    13791.434 
     571 7.5893427e-07   -796.72258            0   -796.72258    13791.434 
     572 9.1400489e-07   -796.72258            0   -796.72258    13791.434 
     573 1.0825824e-06   -796.72258            0   -796.72258    13791.434 
     574 1.2643486e-06   -796.72258            0   -796.72258    13791.433 
     575 1.4589566e-06   -796.72258            0   -796.72258    13791.433 
     576 1.6660321e-06   -796.72258            0   -796.72258    13791.433 
     577 1.8851736e-06   -796.72258            0   -796.72258    13791.432 
     578 2.1159531e-06   -796.72258            0   -796.72258    13791.432 
     579 2.3579163e-06   -796.72258            0   -796.72258    13791.432 
     580 2.6105834e-06   -796.72258            0   -796.72258    13791.431 
     581 2.8734493e-06   -796.72258            0   -796.72258    13791.431 
     582 3.1459846e-06   -796.72258            0   -796.72258     13791.43 
     583 3.4276356e-06   -796.72258            0   -796.72258     13791.43 
     584 3.7178255e-06   -796.72258            0   -796.72258    13791.429 
     585 4.0159546e-06   -796.72258            0   -796.72258    13791.429 
     586 4.3214012e-06   -796.72258            0   -796.72258    13791.428 
     587 4.6335224e-06   -796.72258            0   -796.72258    13791.427 
     588 4.9516543e-06   -796.72258            0   -796.72258    13791.427 
     589 5.2751133e-06   -796.72258            0   -796.72258    13791.426 
     590 5.6031968e-06   -796.72258            0   -796.72258    13791.425 
     591 5.9351835e-06   -796.72258            0   -796.72258    13791.425 
     592 6.2703352e-06   -796.72258            0   -796.72258    13791.424 
     593 6.607896e-06   -796.72258            0   -796.72258    13791.423 
     594 6.9470959e-06   -796.72258            0   -796.72258    13791.423 
     595 7.2871463e-06   -796.72258            0   -796.72258    13791.422 
     596 7.6272528e-06   -796.72258            0   -796.72258    13791.421 
     597 7.9665805e-06   -796.72258            0   -796.72258     13791.42 
     598 8.3042862e-06   -796.72258            0   -796.72258    13791.419 
     599 8.638715e-06   -796.72258            0   -796.72258    13791.418 
     600 8.9606219e-06   -796.72258            0   -796.72258    13791.417 
     601 9.1494642e-06   -796.72258            0   -796.72258    13791.416 
     602 7.7222538e-06   -796.72258            0   -796.72258    13791.416 
     603 1.0762243e-06   -796.72258            0   -796.72258    13791.415 
     604 1.1613896e-07   -796.72258            0   -796.72258    13791.415 
     605 1.8459801e-07   -796.72258            0   -796.72258    13791.415 
     606 2.5183291e-07   -796.72258            0   -796.72258    13791.415 
     607 3.202128e-07   -796.72258            0   -796.72258    13791.415 
     608 3.9510666e-07   -796.72258            0   -796.72258    13791.414 
     609 4.7739237e-07   -796.72258            0   -796.72258    13791.414 
     610 5.669559e-07   -796.72258            0   -796.72258    13791.414 
     611 6.6361574e-07   -796.72258            0   -796.72258    13791.414 
     612 7.6717478e-07   -796.72258            0   -796.72258    13791.413 
     613 8.774204e-07   -796.72258            0   -796.72258    13791.413 
     614 9.9412446e-07   -796.72258            0   -796.72258    13791.413 
     615 1.1170436e-06   -796.72258            0   -796.72258    13791.412 
     616 1.2459197e-06   -796.72258            0   -796.72258    13791.412 
     617 1.3804797e-06   -796.72258            0   -796.72258    13791.412 
     618 1.5204367e-06   -796.72258            0   -796.72258    13791.411 
     619 1.6654895e-06   -796.72258            0   -796.72258    13791.411 
     620 1.8153237e-06   -796.72258            0   -796.72258     13791.41 
     621 1.9696115e-06   -796.72258            0   -796.72258     13791.41 
     622 2.1280126e-06   -796.72258            0   -796.72258     13791.41 
     623 2.2901743e-06   -796.72258            0   -796.72258    13791.409 
     624 2.4557321e-06   -796.72258            0   -796.72258    13791.409 
     625  2.62431e-06   -796.72258            0   -796.72258    13791.408 
     626 2.7955214e-06   -796.72258            0   -796.72258    13791.407 
     627 2.9689691e-06   -796.72258            0   -796.72258    13791.407 
     628 3.1442462e-06   -796.72258            0   -796.72258    13791.406 
     629 3.3209366e-06   -796.72258            0   -796.72258    13791.406 
     630 3.4986148e-06   -796.72258            0   -796.72258    13791.405 
     631 3.6768486e-06   -796.72258            0   -796.72258    13791.404 
     632 3.8551953e-06   -796.72258            0   -796.72258    13791.404 
     633 4.0332091e-06   -796.72258            0   -796.72258    13791.403 
     634 4.2104037e-06   -796.72258            0   -796.72258    13791.402 
     635 4.3861005e-06   -796.72258            0   -796.72258    13791.402 
     636 4.5568042e-06   -796.72258            0   -796.72258    13791.401 
     637 4.6835946e-06   -796.72258            0   -796.72258      13791.4 
     638 4.2684113e-06   -796.72258            0   -796.72258    13791.399 
     639 1.1047483e-06   -796.72258            0   -796.72258    13791.399 
     640 1.2122129e-08   -796.72258            0   -796.72258    13791.399 
     641 2.3762654e-08   -796.72258            0   -796.72258    13791.399 
     642 4.362358e-08   -796.72258            0   -796.72258    13791.399 
     643 7.216969e-08   -796.72258            0   -796.72258    13791.399 
     644 1.0439162e-07   -796.72258            0   -796.72258    13791.399 
     645 1.3809224e-07   -796.72258            0   -796.72258    13791.398 
     646 1.7496547e-07   -796.72258            0   -796.72258    13791.398 
     647 2.1584183e-07   -796.72258            0   -796.72258    13791.398 
     648 2.6075918e-07   -796.72258            0   -796.72258    13791.398 
     649 3.0962618e-07   -796.72258            0   -796.72258    13791.398 
     650 3.6233756e-07   -796.72258            0   -796.72258    13791.398 
     651 4.1877869e-07   -796.72258            0   -796.72258    13791.397 
     652 4.7882585e-07   -796.72258            0   -796.72258    13791.397 
     653 5.4234638e-07   -796.72258            0   -796.72258    13791.397 
     654 6.0919888e-07   -796.72258            0   -796.72258    13791.397 
     655 6.7923343e-07   -796.72258            0   -796.72258    13791.396 
     656 7.5229174e-07   -796.72258            0   -796.72258    13791.396 
     657 8.2820746e-07   -796.72258            0   -796.72258    13791.396 
     658 9.0680632e-07   -796.72258            0   -796.72258    13791.395 
     659 9.8790645e-07   -796.72258            0   -796.72258    13791.395 
     660 1.0713186e-06   -796.72258            0   -796.72258    13791.395 
     661 1.1568465e-06   -796.72258            0   -796.72258    13791.394 
     662 1.2442869e-06   -796.72258            0   -796.72258    13791.394 
     663 1.3334303e-06   -796.72258            0   -796.72258    13791.393 
     664 1.4240609e-06   -796.72258            0   -796.72258    13791.393 
     665 1.5159569e-06   -796.72258            0   -796.72258    13791.393 
     666 1.6088913e-06   -796.72258            0   -796.72258    13791.392 
     667 1.7026315e-06   -796.72258            0   -796.72258    13791.392 
     668 1.7969407e-06   -796.72258            0   -796.72258    13791.391 
     669 1.8915768e-06   -796.72258            0   -796.72258    13791.391 
     670 1.9862951e-06   -796.72258            0   -796.72258     13791.39 
     671 2.0808447e-06   -796.72258            0   -796.72258     13791.39 
     672 2.1749759e-06   -796.72258            0   -796.72258    13791.389 
     673 2.2684267e-06   -796.72258            0   -796.72258    13791.388 
     674 2.3609211e-06   -796.72258            0   -796.72258    13791.388 
     675 2.4519111e-06   -796.72258            0   -796.72258    13791.387 
     676 2.536793e-06   -796.72258            0   -796.72258    13791.386 
     677 2.5529218e-06   -796.72258            0   -796.72258    13791.387 
     678 1.7587048e-06   -796.72258            0   -796.72258    13791.384 
     679 6.3518667e-08   -796.72258            0   -796.72258    13791.385 
     680 1.113747e-07   -796.72258            0   -796.72258    13791.385 
     681 1.3169976e-07   -796.72258            0   -796.72258    13791.385 
     682 1.5728635e-07   -796.72258            0   -796.72258    13791.385 
     683 1.8496003e-07   -796.72258            0   -796.72258    13791.385 
     684 2.146486e-07   -796.72258            0   -796.72258    13791.385 
     685 2.462853e-07   -796.72258            0   -796.72258    13791.384 
     686 2.7979538e-07   -796.72258            0   -796.72258    13791.384 
     687 3.150997e-07   -796.72258            0   -796.72258    13791.384 
     688  3.52114e-07   -796.72258            0   -796.72258    13791.384 
     689 3.9074945e-07   -796.72258            0   -796.72258    13791.384 
     690 4.3091249e-07   -796.72258            0   -796.72258    13791.383 
     691 4.7250529e-07   -796.72258            0   -796.72258    13791.383 
     692 5.1542557e-07   -796.72258            0   -796.72258    13791.383 
     693 5.5956714e-07   -796.72258            0   -796.72258    13791.383 
     694 6.0481964e-07   -796.72258            0   -796.72258    13791.382 
     695 6.5106931e-07   -796.72258            0   -796.72258    13791.382 
     696 6.9819827e-07   -796.72258            0   -796.72258    13791.382 
     697 7.4608632e-07   -796.72258            0   -796.72258    13791.381 
     698 7.9460806e-07   -796.72258            0   -796.72258    13791.381 
     699 8.4363902e-07   -796.72258            0   -796.72258    13791.381 
     700 8.9304115e-07   -796.72258            0   -796.72258     13791.38 
     701 9.4268315e-07   -796.72258            0   -796.72258     13791.38 
     702 9.9228588e-07   -796.72258            0   -796.72258    13791.379 
     703 1.0409414e-06   -796.72258            0   -796.72258    13791.379 
     704 1.0803532e-06   -796.72258            0   -796.72258    13791.378 
     705 1.0388816e-06   -796.72258            0   -796.72258    13791.379 
     706 5.3213903e-07   -796.72258            0   -796.72258    13791.377 
     707  3.11406e-08   -796.72258            0   -796.72258    13791.377 
     708 5.4415592e-08   -796.72258            0   -796.72258    13791.378 
     709 6.8882026e-08   -796.72258            0   -796.72258    13791.378 
     710 8.3697242e-08   -796.72258            0   -796.72258    13791.377 
     711 9.9874457e-08   -796.72258            0   -796.72258    13791.377 
     712 1.1735406e-07   -796.72258            0   -796.72258    13791.377 
     713 1.3609354e-07   -796.72258            0   -796.72258    13791.377 
     714 1.5604718e-07   -796.72258            0   -796.72258    13791.377 
     715 1.771659e-07   -796.72258            0   -796.72258    13791.377 
     716 1.9939741e-07   -796.72258            0   -796.72258    13791.377 
     717 2.2268625e-07   -796.72258            0   -796.72258    13791.376 
     718 2.469739e-07   -796.72258            0   -796.72258    13791.376 
     719 2.7219892e-07   -796.72258            0   -796.72258    13791.376 
     720 2.9829702e-07   -796.72258            0   -796.72258    13791.376 
     721 3.2520117e-07   -796.72258            0   -796.72258    13791.376 
     722 3.5284177e-07   -796.72258            0   -796.72258    13791.375 
     723 3.8114671e-07   -796.72258            0   -796.72258    13791.375 
     724 4.1004158e-07   -796.72258            0   -796.72258    13791.375 
     725 4.3944973e-07   -796.72258            0   -796.72258    13791.375 
     726 4.6929249e-07   -796.72258            0   -796.72258    13791.374 
     727 4.9948923e-07   -796.72258            0   -796.72258    13791.374 
     728 5.2995767e-07   -796.72258            0   -796.72258    13791.374 
     729 5.6061363e-07   -796.72258            0   -796.72258    13791.373 
     730 5.9137109e-07   -796.72258            0   -796.72258    13791.373 
     731 6.2213549e-07   -796.72258            0   -796.72258    13791.373 
     732 6.5275661e-07   -796.72258            0   -796.72258    13791.372 
     733 6.8253299e-07   -796.72258            0   -796.72258    13791.372 
     734 7.0504572e-07   -796.72258            0   -796.72258    13791.372 
     735 6.5462573e-07   -796.72258            0   -796.72258    13791.371 
     736 2.3749618e-07   -796.72258            0   -796.72258    13791.371 
     737 7.1912093e-09   -796.72258            0   -796.72258    13791.371 
     738 1.3632654e-08   -796.72258            0   -796.72258    13791.371 
     739 2.1729378e-08   -796.72258            0   -796.72258    13791.371 
     740 2.9130894e-08   -796.72258            0   -796.72258    13791.371 
     741 3.6791012e-08   -796.72258            0   -796.72258    13791.371 
     742 4.5244614e-08   -796.72258            0   -796.72258    13791.371 
     743 5.4511884e-08   -796.72258            0   -796.72258    13791.371 
     744 6.4569873e-08   -796.72258            0   -796.72258    13791.371 
     745 7.5393172e-08   -796.72258            0   -796.72258     13791.37 
     746 8.695422e-08   -796.72258            0   -796.72258     13791.37 
     747 9.9223361e-08   -796.72258            0   -796.72258     13791.37 
     748 1.121689e-07   -796.72258            0   -796.72258     13791.37 
     749 1.2575718e-07   -796.72258            0   -796.72258     13791.37 
     750 1.399526e-07   -796.72258            0   -796.72258     13791.37 
     751 1.5471775e-07   -796.72258            0   -796.72258     13791.37 
     752 1.7001343e-07   -796.72258            0   -796.72258    13791.369 
     753 1.8579874e-07   -796.72258            0   -796.72258    13791.369 
     754 2.020312e-07   -796.72258            0   -796.72258    13791.369 
     755 2.1866676e-07   -796.72258            0   -796.72258    13791.369 
     756 2.3565996e-07   -796.72258            0   -796.72258    13791.369 
     757 2.5296399e-07   -796.72258            0   -796.72258    13791.368 
     758 2.7053079e-07   -796.72258            0   -796.72258    13791.368 
     759 2.8831118e-07   -796.72258            0   -796.72258    13791.368 
     760 3.0625488e-07   -796.72258            0   -796.72258    13791.368 
     761 3.2431073e-07   -796.72258            0   -796.72258    13791.368 
     762 3.4242665e-07   -796.72258            0   -796.72258    13791.367 
     763 3.6054999e-07   -796.72258            0   -796.72258    13791.367 
     764 3.7862582e-07   -796.72258            0   -796.72258    13791.367 
     765 3.9658982e-07   -796.72258            0   -796.72258    13791.366 
     766 4.1426512e-07   -796.72258            0   -796.72258    13791.366 
     767 4.3022733e-07   -796.72258            0   -796.72258    13791.366 
     768 4.278275e-07   -796.72258            0   -796.72258    13791.366 
     769 2.6466116e-07   -796.72258            0   -796.72258    13791.366 
     770 1.0246219e-08   -796.72258            0   -796.72258    13791.365 
     771 2.0605086e-08   -796.72258            0   -796.72258    13791.365 
     772 2.573278e-08   -796.72258            0   -796.72258    13791.365 
     773 3.1092867e-08   -796.72258            0   -796.72258    13791.365 
     774 3.6917797e-08   -796.72258            0   -796.72258    13791.365 
     775 4.3191287e-08   -796.72258            0   -796.72258    13791.365 
     776 4.9896664e-08   -796.72258            0   -796.72258    13791.365 
     777 5.7015978e-08   -796.72258            0   -796.72258    13791.365 
     778 6.4530045e-08   -796.72258            0   -796.72258    13791.365 
     779 7.2418485e-08   -796.72258            0   -796.72258    13791.365 
     780 8.0659765e-08   -796.72258            0   -796.72258    13791.364 
     781 8.9231239e-08   -796.72258            0   -796.72258    13791.364 
     782 9.8109207e-08   -796.72258            0   -796.72258    13791.364 
     783 1.0726895e-07   -796.72258            0   -796.72258    13791.364 
     784 1.1668481e-07   -796.72258            0   -796.72258    13791.364 
     785 1.2633021e-07   -796.72258            0   -796.72258    13791.364 
     786 1.3617776e-07   -796.72258            0   -796.72258    13791.364 
     787 1.4619923e-07   -796.72258            0   -796.72258    13791.363 
     788 1.5636574e-07   -796.72258            0   -796.72258    13791.363 
     789 1.6664749e-07   -796.72258            0   -796.72258    13791.363 
     790 1.7701371e-07   -796.72258            0   -796.72258    13791.363 
     791 1.8742762e-07   -796.72258            0   -796.72258    13791.363 
     792 1.9781965e-07   -796.72258            0   -796.72258    13791.363 
     793 2.0783713e-07   -796.72258            0   -796.72258    13791.362 
     794 2.1471174e-07   -796.72258            0   -796.72258    13791.362 
     795 1.9521784e-07   -796.72258            0   -796.72258    13791.362 
     796 7.1186032e-08   -796.72258            0   -796.72258    13791.362 
     797 5.0205937e-09   -796.72258            0   -796.72258    13791.362 
     798 8.9036724e-09   -796.72258            0   -796.72258    13791.362 
     799 1.1977949e-08   -796.72258            0   -796.72258    13791.362 
     800 1.4967609e-08   -796.72258            0   -796.72258    13791.362 
     801 1.8255559e-08   -796.72258            0   -796.72258    13791.362 
     802 2.1843682e-08   -796.72258            0   -796.72258    13791.362 
     803 2.5722205e-08   -796.72258            0   -796.72258    13791.361 
     804 2.9880506e-08   -796.72258            0   -796.72258    13791.361 
     805 3.4307123e-08   -796.72258            0   -796.72258    13791.361 
     806 3.898977e-08   -796.72258            0   -796.72258    13791.361 
     807 4.3915371e-08   -796.72258            0   -796.72258    13791.361 
     808 4.9070083e-08   -796.72258            0   -796.72258    13791.361 
     809 5.4439332e-08   -796.72258            0   -796.72258    13791.361 
     810 6.0007843e-08   -796.72258            0   -796.72258    13791.361 
     811 6.5759676e-08   -796.72258            0   -796.72258    13791.361 
     812 7.1678262e-08   -796.72258            0   -796.72258    13791.361 
     813 7.7746445e-08   -796.72258            0   -796.72258     13791.36 
     814 8.3946517e-08   -796.72258            0   -796.72258     13791.36 
     815 9.0260264e-08   -796.72258            0   -796.72258     13791.36 
     816 9.6669008e-08   -796.72258            0   -796.72258     13791.36 
     817 1.0315366e-07   -796.72258            0   -796.72258     13791.36 
     818 1.0969472e-07   -796.72258            0   -796.72258     13791.36 
     819 1.1627243e-07   -796.72258            0   -796.72258     13791.36 
     820 1.228664e-07   -796.72258            0   -796.72258    13791.359 
     821  1.29455e-07   -796.72258            0   -796.72258    13791.359 
     822 1.3600291e-07   -796.72258            0   -796.72258    13791.359 
     823 1.423566e-07   -796.72258            0   -796.72258    13791.359 
     824 1.4707339e-07   -796.72258            0   -796.72258    13791.359 
     825 1.3551736e-07   -796.72258            0   -796.72258    13791.359 
     826 4.5952989e-08   -796.72258            0   -796.72258    13791.359 
     827 1.4373092e-09   -796.72258            0   -796.72258    13791.359 
     828 2.7452463e-09   -796.72258            0   -796.72258    13791.359 
     829 4.4369808e-09   -796.72258            0   -796.72258    13791.358 
     830 6.0335757e-09   -796.72258            0   -796.72258    13791.358 
     831 7.6990183e-09   -796.72258            0   -796.72258    13791.358 
     832 9.5443607e-09   -796.72258            0   -796.72258    13791.358 
     833 1.1573676e-08   -796.72258            0   -796.72258    13791.358 
     834 1.3781322e-08   -796.72258            0   -796.72258    13791.358 
     835 1.6161082e-08   -796.72258            0   -796.72258    13791.358 
     836 1.8706206e-08   -796.72258            0   -796.72258    13791.358 
     837 2.140943e-08   -796.72258            0   -796.72258    13791.358 
     838 2.4262986e-08   -796.72258            0   -796.72258    13791.358 
     839 2.7258628e-08   -796.72258            0   -796.72258    13791.358 
     840 3.0387648e-08   -796.72258            0   -796.72258    13791.358 
     841 3.3640898e-08   -796.72258            0   -796.72258    13791.358 
     842 3.7008809e-08   -796.72258            0   -796.72258    13791.358 
     843 4.0481419e-08   -796.72258            0   -796.72258    13791.358 
     844 4.4048398e-08   -796.72258            0   -796.72258    13791.358 
     845 4.7699068e-08   -796.72258            0   -796.72258    13791.357 
     846 5.1422435e-08   -796.72258            0   -796.72258    13791.357 
     847 5.5207212e-08   -796.72258            0   -796.72258    13791.357 
     848 5.9041861e-08   -796.72258            0   -796.72258    13791.357 
     849 6.2914595e-08   -796.72258            0   -796.72258    13791.357 
     850 6.6813457e-08   -796.72258            0   -796.72258    13791.357 
     851 7.0726259e-08   -796.72258            0   -796.72258    13791.357 
     852 7.464079e-08   -796.72258            0   -796.72258    13791.357 
     853 7.8544239e-08   -796.72258            0   -796.72258    13791.357 
     854 8.2422942e-08   -796.72258            0   -796.72258    13791.356 
     855 8.6244182e-08   -796.72258            0   -796.72258    13791.356 
     856 8.9793194e-08   -796.72258            0   -796.72258    13791.356 
     857 9.0561833e-08   -796.72258            0   -796.72258    13791.356 
     858 6.4755146e-08   -796.72258            0   -796.72258    13791.356 
     859 4.5160019e-09   -796.72258            0   -796.72258    13791.356 
     860 5.8594006e-09   -796.72258            0   -796.72258    13791.356 
     861 7.0822525e-09   -796.72258            0   -796.72258    13791.356 
     862 8.4108849e-09   -796.72258            0   -796.72258    13791.356 
     863 9.8408325e-09   -796.72258            0   -796.72258    13791.356 
     864 1.1367866e-08   -796.72258            0   -796.72258    13791.356 
     865 1.2987498e-08   -796.72258            0   -796.72258    13791.356 
     866 1.4694926e-08   -796.72258            0   -796.72258    13791.356 
     867 1.6485072e-08   -796.72258            0   -796.72258    13791.355 
     868 1.8352573e-08   -796.72258            0   -796.72258    13791.355 
     869 2.0291811e-08   -796.72258            0   -796.72258    13791.355 
     870 2.2296913e-08   -796.72258            0   -796.72258    13791.355 
     871 2.4361783e-08   -796.72258            0   -796.72258    13791.355 
     872 2.6480092e-08   -796.72258            0   -796.72258    13791.355 
     873 2.8645335e-08   -796.72258            0   -796.72258    13791.355 
     874 3.0850763e-08   -796.72258            0   -796.72258    13791.355 
     875 3.3089475e-08   -796.72258            0   -796.72258    13791.355 
     876 3.5353887e-08   -796.72258            0   -796.72258    13791.355 
     877 3.763453e-08   -796.72258            0   -796.72258    13791.355 
     878 3.9907088e-08   -796.72258            0   -796.72258    13791.355 
     879 4.2050026e-08   -796.72258            0   -796.72258    13791.355 
     880 4.3166503e-08   -796.72258            0   -796.72258    13791.354 
     881 3.7054765e-08   -796.72258            0   -796.72258    13791.354 
     882 1.131784e-08   -796.72258            0   -796.72258    13791.354 
     883 1.7855687e-09   -796.72258            0   -796.72258    13791.354 
     884 2.7098538e-09   -796.72258            0   -796.72258    13791.354 
     885 3.4154879e-09   -796.72258            0   -796.72258    13791.354 
     886 4.1843861e-09   -796.72258            0   -796.72258    13791.354 
     887 5.0248594e-09   -796.72258            0   -796.72258    13791.354 
     888 5.9343495e-09   -796.72258            0   -796.72258    13791.354 
     889 6.9101549e-09   -796.72258            0   -796.72258    13791.354 
     890 7.9493566e-09   -796.72258            0   -796.72258    13791.354 
     891 9.0488279e-09   -796.72258            0   -796.72258    13791.354 
     892 1.0205242e-08   -796.72258            0   -796.72258    13791.354 
     893 1.1415082e-08   -796.72258            0   -796.72258    13791.354 
     894 1.2674647e-08   -796.72258            0   -796.72258    13791.354 
     895 1.3980067e-08   -796.72258            0   -796.72258    13791.354 
     896 1.5327307e-08   -796.72258            0   -796.72258    13791.354 
     897 1.6712183e-08   -796.72258            0   -796.72258    13791.354 
     898 1.8130373e-08   -796.72258            0   -796.72258    13791.354 
     899 1.9577426e-08   -796.72258            0   -796.72258    13791.354 
     900 2.1048775e-08   -796.72258            0   -796.72258    13791.354 
     901 2.2539752e-08   -796.72258            0   -796.72258    13791.353 
     902 2.404559e-08   -796.72258            0   -796.72258    13791.353 
     903 2.5561439e-08   -796.72258            0   -796.72258    13791.353 
     904 2.7082149e-08   -796.72258            0   -796.72258    13791.353 
     905 2.8601325e-08   -796.72258            0   -796.72258    13791.353 
     906 3.0100423e-08   -796.72258            0   -796.72258    13791.353 
     907 3.1454471e-08   -796.72258            0   -796.72258    13791.353 
     908 3.1473274e-08   -796.72258            0   -796.72258    13791.353 
     909 2.1432197e-08   -796.72258            0   -796.72258    13791.353 
     910 1.9287236e-09   -796.72258            0   -796.72258    13791.353 
     911 2.387452e-09   -796.72258            0   -796.72258    13791.353 
     912 2.896504e-09   -796.72258            0   -796.72258    13791.353 
     913 3.4501063e-09   -796.72258            0   -796.72258    13791.353 
     914 4.0465823e-09   -796.72258            0   -796.72258    13791.353 
     915 4.6841177e-09   -796.72258            0   -796.72258    13791.353 
     916 5.3607619e-09   -796.72258            0   -796.72258    13791.353 
     917 6.0744334e-09   -796.72258            0   -796.72258    13791.353 
     918 6.8229247e-09   -796.72258            0   -796.72258    13791.353 
     919 7.6039095e-09   -796.72258            0   -796.72258    13791.353 
     920 8.4149476e-09   -796.72258            0   -796.72258    13791.352 
     921 9.2534934e-09   -796.72258            0   -796.72258    13791.352 
     922 1.0116901e-08   -796.72258            0   -796.72258    13791.352 
     923 1.1002435e-08   -796.72258            0   -796.72258    13791.352 
     924 1.1907273e-08   -796.72258            0   -796.72258    13791.352 
     925 1.282852e-08   -796.72258            0   -796.72258    13791.352 
     926 1.376321e-08   -796.72258            0   -796.72258    13791.352 
     927 1.4708321e-08   -796.72258            0   -796.72258    13791.352 
     928 1.5660769e-08   -796.72258            0   -796.72258    13791.352 
     929 1.6617433e-08   -796.72258            0   -796.72258    13791.352 
     930 1.7574925e-08   -796.72258            0   -796.72258    13791.352 
     931 1.8528672e-08   -796.72258            0   -796.72258    13791.352 
     932 1.9461417e-08   -796.72258            0   -796.72258    13791.352 
     933 2.0236776e-08   -796.72258            0   -796.72258    13791.352 
     934 1.9496763e-08   -796.72258            0   -796.72258    13791.352 
     935 9.5422306e-09   -796.72258            0   -796.72258    13791.352 
     936 3.7739145e-10   -796.72258            0   -796.72258    13791.352 
     937 7.4670551e-10   -796.72258            0   -796.72258    13791.352 
     938 1.0519098e-09   -796.72258            0   -796.72258    13791.352 
     939 1.3242599e-09   -796.72258            0   -796.72258    13791.352 
     940 1.6240452e-09   -796.72258            0   -796.72258    13791.352 
     941 1.9517665e-09   -796.72258            0   -796.72258    13791.352 
     942 2.3064148e-09   -796.72258            0   -796.72258    13791.352 
     943 2.6868945e-09   -796.72258            0   -796.72258    13791.352 
     944 3.0920236e-09   -796.72258            0   -796.72258    13791.351 
     945 3.5205364e-09   -796.72258            0   -796.72258    13791.351 
     946 3.9710872e-09   -796.72258            0   -796.72258    13791.351 
     947 4.442254e-09   -796.72258            0   -796.72258    13791.351 
     948 4.9325428e-09   -796.72258            0   -796.72258    13791.351 
     949 5.4403914e-09   -796.72258            0   -796.72258    13791.351 
     950 5.9641747e-09   -796.72258            0   -796.72258    13791.351 
     951 6.5022084e-09   -796.72258            0   -796.72258    13791.351 
     952 7.0527548e-09   -796.72258            0   -796.72258    13791.351 
     953 7.6140273e-09   -796.72258            0   -796.72258    13791.351 
     954 8.1841965e-09   -796.72258            0   -796.72258    13791.351 
     955 8.7613928e-09   -796.72258            0   -796.72258    13791.351 
     956 9.3437177e-09   -796.72258            0   -796.72258    13791.351 
     957 9.9292209e-09   -796.72258            0   -796.72258    13791.351 
     958 1.0515887e-08   -796.72258            0   -796.72258    13791.351 
     959 1.1100931e-08   -796.72258            0   -796.72258    13791.351 
     960 1.1676184e-08   -796.72258            0   -796.72258    13791.351 
     961 1.2177952e-08   -796.72258            0   -796.72258    13791.351 
     962 1.1999217e-08   -796.72258            0   -796.72258    13791.351 
     963 7.0887709e-09   -796.72258            0   -796.72258    13791.351 
     964 4.1178187e-10   -796.72258            0   -796.72258    13791.351 
     965 7.5506204e-10   -796.72258            0   -796.72258    13791.351 
     966 9.3200207e-10   -796.72258            0   -796.72258    13791.351 
     967 1.1296586e-09   -796.72258            0   -796.72258    13791.351 
     968 1.3444577e-09   -796.72258            0   -796.72258    13791.351 
     969 1.5757187e-09   -796.72258            0   -796.72258    13791.351 
     970 1.8227126e-09   -796.72258            0   -796.72258    13791.351 
     971 2.084658e-09   -796.72258            0   -796.72258    13791.351 
     972 2.3607215e-09   -796.72258            0   -796.72258    13791.351 
     973 2.650021e-09   -796.72258            0   -796.72258    13791.351 
     974 2.9516271e-09   -796.72258            0   -796.72258    13791.351 
     975 3.2645673e-09   -796.72258            0   -796.72258     13791.35 
     976 3.5878274e-09   -796.72258            0   -796.72258     13791.35 
     977 3.920356e-09   -796.72258            0   -796.72258     13791.35 
     978 4.2610654e-09   -796.72258            0   -796.72258     13791.35 
     979 4.6088388e-09   -796.72258            0   -796.72258     13791.35 
     980 4.9625254e-09   -796.72258            0   -796.72258     13791.35 
     981 5.320954e-09   -796.72258            0   -796.72258     13791.35 
     982 5.6828876e-09   -796.72258            0   -796.72258     13791.35 
     983 6.0469519e-09   -796.72258            0   -796.72258     13791.35 
     984 6.4105406e-09   -796.72258            0   -796.72258     13791.35 
     985 6.762784e-09   -796.72258            0   -796.72258     13791.35 
     986 7.0208829e-09   -796.72258            0   -796.72258     13791.35 
     987 6.5235015e-09   -796.72258            0   -796.72258     13791.35 
     988 2.7637845e-09   -796.72258            0   -796.72258     13791.35 
     989 2.0453027e-10   -796.72258            0   -796.72258     13791.35 
     990 3.6556457e-10   -796.72258            0   -796.72258     13791.35 
     991 4.7850008e-10   -796.72258            0   -796.72258     13791.35 
     992 5.9450982e-10   -796.72258            0   -796.72258     13791.35 
     993 7.221459e-10   -796.72258            0   -796.72258     13791.35 
     994 8.6097791e-10   -796.72258            0   -796.72258     13791.35 
     995 1.0105667e-09   -796.72258            0   -796.72258     13791.35 
     996 1.1704359e-09   -796.72258            0   -796.72258     13791.35 
     997 1.3400739e-09   -796.72258            0   -796.72258     13791.35 
     998 1.5189348e-09   -796.72258            0   -796.72258     13791.35 
     999 1.7064404e-09   -796.72258            0   -796.72258     13791.35 
    1000 1.9019819e-09   -796.72258            0   -796.72258     13791.35 
    1001 2.1049213e-09   -796.72258            0   -796.72258     13791.35 
    1002 2.3145943e-09   -796.72258            0   -796.72258     13791.35 
    1003 2.530311e-09   -796.72258            0   -796.72258     13791.35 
    1004 2.7513592e-09   -796.72258            0   -796.72258     13791.35 
    1005 2.9770059e-09   -796.72258            0   -796.72258     13791.35 
    1006   3.2065e-09   -796.72258            0   -796.72258     13791.35 
    1007 3.4390736e-09   -796.72258            0   -796.72258     13791.35 
    1008 3.6739464e-09   -796.72258            0   -796.72258     13791.35 
    1009 3.9103246e-09   -796.72258            0   -796.72258     13791.35 
    1010 4.1474056e-09   -796.72258            0   -796.72258     13791.35 
    1011 4.3843468e-09   -796.72258            0   -796.72258     13791.35 
    1012 4.6200841e-09   -796.72258            0   -796.72258     13791.35 
    1013 4.8513691e-09   -796.72258            0   -796.72258     13791.35 
    1014 5.0525988e-09   -796.72258            0   -796.72258    13791.349 
    1015 4.9587703e-09   -796.72258            0   -796.72258    13791.349 
    1016 2.7602919e-09   -796.72258            0   -796.72258    13791.349 
    1017 1.136415e-10   -796.72258            0   -796.72258    13791.349 
    1018 2.2820975e-10   -796.72258            0   -796.72258    13791.349 
    1019 3.0169877e-10   -796.72258            0   -796.72258    13791.349 
    1020 3.7347234e-10   -796.72258            0   -796.72258    13791.349 
    1021 4.5233802e-10   -796.72258            0   -796.72258    13791.349 
    1022 5.3798664e-10   -796.72258            0   -796.72258    13791.349 
[...]
    2250 3.0060434e-18   -796.72258            0   -796.72258    13791.347 
    2251 1.0877743e-17   -796.72258            0   -796.72258    13791.347 
    2252 7.6496605e-17   -796.72258            0   -796.72258    13791.347 
    2253 6.7149625e-16   -796.72258            0   -796.72258    13791.347 
    2254 6.6557493e-15   -796.72258            0   -796.72258    13791.347 
    2255 5.487721e-14   -796.72258            0   -796.72258    13791.347 
    2256 4.608055e-14   -796.72258            0   -796.72258    13791.347 
    2257 1.1850234e-15   -796.72258            0   -796.72258    13791.347 
    2258 2.6647212e-17   -796.72258            0   -796.72258    13791.347 
    2259 1.5113409e-19   -796.72258            0   -796.72258    13791.347 
    2260 1.5970002e-19   -796.72258            0   -796.72258    13791.347 
    2261 1.8700158e-19   -796.72258            0   -796.72258    13791.347 
    2262 2.1649202e-19   -796.72258            0   -796.72258    13791.347 
    2263 2.483263e-19   -796.72258            0   -796.72258    13791.347 
    2264 2.8191035e-19   -796.72258            0   -796.72258    13791.347 
    2265 3.1736144e-19   -796.72258            0   -796.72258    13791.347 
    2266 3.5543102e-19   -796.72258            0   -796.72258    13791.347 
    2267 3.9482273e-19   -796.72258            0   -796.72258    13791.347 
    2268 4.3652157e-19   -796.72258            0   -796.72258    13791.347 
    2269 4.7940696e-19   -796.72258            0   -796.72258    13791.347 
    2270 5.2517095e-19   -796.72258            0   -796.72258    13791.347 
    2271 5.7102645e-19   -796.72258            0   -796.72258    13791.347 
    2272 6.215623e-19   -796.72258            0   -796.72258    13791.347 
    2273 6.7021016e-19   -796.72258            0   -796.72258    13791.347 
    2274 7.272145e-19   -796.72258            0   -796.72258    13791.347 
    2275 7.8229278e-19   -796.72258            0   -796.72258    13791.347 
    2276 8.7984032e-19   -796.72258            0   -796.72258    13791.347 
    2277 1.0839713e-18   -796.72258            0   -796.72258    13791.347 
    2278 2.175893e-18   -796.72258            0   -796.72258    13791.347 
    2279 8.8247918e-18   -796.72258            0   -796.72258    13791.347 
    2280 6.0227678e-17   -796.72258            0   -796.72258    13791.347 
    2281 4.9925808e-16   -796.72258            0   -796.72258    13791.347 
    2282 4.6974097e-15   -796.72258            0   -796.72258    13791.347 
    2283 4.346675e-14   -796.72258            0   -796.72258    13791.347 
    2284 1.2457543e-13   -796.72258            0   -796.72258    13791.347 
    2285 3.8226396e-15   -796.72258            0   -796.72258    13791.347 
    2286 3.8238935e-15   -796.72258            0   -796.72258    13791.347 
    2287 2.2793166e-15   -796.72258            0   -796.72258    13791.347 
    2288 6.5109075e-16   -796.72258            0   -796.72258    13791.347 
    2289 8.6550205e-17   -796.72258            0   -796.72258    13791.347 
    2290 4.9047558e-18   -796.72258            0   -796.72258    13791.347 
    2291 1.3889738e-19   -796.72258            0   -796.72258    13791.347 
    2292 8.2153827e-20   -796.72258            0   -796.72258    13791.347 
    2293 9.7229039e-20   -796.72258            0   -796.72258    13791.347 
    2294 1.1349032e-19   -796.72258            0   -796.72258    13791.347 
    2295 1.3092794e-19   -796.72258            0   -796.72258    13791.347 
    2296 1.4944139e-19   -796.72258            0   -796.72258    13791.347 
    2297 1.6908326e-19   -796.72258            0   -796.72258    13791.347 
    2298 1.9006443e-19   -796.72258            0   -796.72258    13791.347 
    2299 2.1191417e-19   -796.72258            0   -796.72258    13791.347 
    2300 2.3504303e-19   -796.72258            0   -796.72258    13791.347 
    2301 2.5904526e-19   -796.72258            0   -796.72258    13791.347 
    2302 2.8428561e-19   -796.72258            0   -796.72258    13791.347 
    2303 3.1037776e-19   -796.72258            0   -796.72258    13791.347 
    2304 3.3794476e-19   -796.72258            0   -796.72258    13791.347 
    2305 3.6553258e-19   -796.72258            0   -796.72258    13791.347 
    2306 3.9587067e-19   -796.72258            0   -796.72258    13791.347 
    2307 4.2581431e-19   -796.72258            0   -796.72258    13791.347 
    2308 4.6458214e-19   -796.72258            0   -796.72258    13791.347 
    2309 5.1824981e-19   -796.72258            0   -796.72258    13791.347 
    2310 6.8873983e-19   -796.72258            0   -796.72258    13791.347 
    2311 1.5076897e-18   -796.72258            0   -796.72258    13791.347 
    2312 6.9236889e-18   -796.72258            0   -796.72258    13791.347 
    2313 4.8117615e-17   -796.72258            0   -796.72258    13791.347 
    2314 4.0347758e-16   -796.72258            0   -796.72258    13791.347 
    2315 3.846753e-15   -796.72258            0   -796.72258    13791.347 
    2316 4.1162968e-14   -796.72258            0   -796.72258    13791.347 
    2317 4.8985602e-13   -796.72258            0   -796.72258    13791.347 
    2318 5.9754326e-12   -796.72258            0   -796.72258    13791.347 
    2319 2.768614e-11   -796.72258            0   -796.72258    13791.347 
    2320 1.7572194e-13   -796.72258            0   -796.72258    13791.347 
    2321 3.5996261e-13   -796.72258            0   -796.72258    13791.347 
    2322 5.3634794e-13   -796.72258            0   -796.72258    13791.347 
    2323 5.8759122e-13   -796.72258            0   -796.72258    13791.347 
    2324 4.1105287e-13   -796.72258            0   -796.72258    13791.347 
    2325 1.5086006e-13   -796.72258            0   -796.72258    13791.347 
    2326 2.730747e-14   -796.72258            0   -796.72258    13791.347 
    2327 2.3212501e-15   -796.72258            0   -796.72258    13791.347 
    2328 6.9392145e-17   -796.72258            0   -796.72258    13791.347 
    2329 3.3259918e-19   -796.72258            0   -796.72258    13791.347 
    2330 4.9880134e-20   -796.72258            0   -796.72258    13791.347 
    2331 5.6689841e-20   -796.72258            0   -796.72258    13791.347 
    2332 6.5667347e-20   -796.72258            0   -796.72258    13791.347 
    2333 7.5242705e-20   -796.72258            0   -796.72258    13791.347 
    2334 8.5467565e-20   -796.72258            0   -796.72258    13791.347 
    2335 9.6224463e-20   -796.72258            0   -796.72258    13791.347 
    2336 1.0765169e-19   -796.72258            0   -796.72258    13791.347 
    2337  1.19567e-19   -796.72258            0   -796.72258    13791.347 
    2338 1.3205427e-19   -796.72258            0   -796.72258    13791.347 
    2339 1.4515971e-19   -796.72258            0   -796.72258    13791.347 
    2340 1.5890074e-19   -796.72258            0   -796.72258    13791.347 
    2341 1.7283862e-19   -796.72258            0   -796.72258    13791.347 
    2342 1.8786285e-19   -796.72258            0   -796.72258    13791.347 
    2343 2.0262915e-19   -796.72258            0   -796.72258    13791.347 
    2344 2.1998164e-19   -796.72258            0   -796.72258    13791.347 
    2345 2.3631427e-19   -796.72258            0   -796.72258    13791.347 
    2346 2.6507792e-19   -796.72258            0   -796.72258    13791.347 
    2347 3.2166722e-19   -796.72258            0   -796.72258    13791.347 
    2348 5.8553383e-19   -796.72258            0   -796.72258    13791.347 
    2349 2.0711475e-18   -796.72258            0   -796.72258    13791.347 
    2350 1.2470908e-17   -796.72258            0   -796.72258    13791.347 
    2351 9.437592e-17   -796.72258            0   -796.72258    13791.347 
    2352 8.2187645e-16   -796.72258            0   -796.72258    13791.347 
    2353 8.0630516e-15   -796.72258            0   -796.72258    13791.347 
    2354 8.8577345e-14   -796.72258            0   -796.72258    13791.347 
    2355 1.0866279e-12   -796.72258            0   -796.72258    13791.347 
    2356 1.4848242e-11   -796.72258            0   -796.72258    13791.347 
    2357 2.2485321e-10   -796.72258            0   -796.72258    13791.347 
    2358 3.5513769e-09   -796.72258            0   -796.72258    13791.346 
    2359 2.2626599e-08   -796.72258            0   -796.72258    13791.349 
    2360 1.4662057e-11   -796.72258            0   -796.72258    13791.349 
    2361 9.0098253e-11   -796.72258            0   -796.72258    13791.349 
    2362 2.2282025e-10   -796.72258            0   -796.72258    13791.349 
    2363 3.8334049e-10   -796.72258            0   -796.72258    13791.349 
    2364 5.0856109e-10   -796.72258            0   -796.72258    13791.348 
    2365 4.8956426e-10   -796.72258            0   -796.72258    13791.348 
    2366 2.7452152e-10   -796.72258            0   -796.72258    13791.347 
    2367 7.184525e-11   -796.72258            0   -796.72258    13791.347 
    2368 8.6216859e-12   -796.72258            0   -796.72258    13791.347 
    2369 4.2303481e-13   -796.72258            0   -796.72258    13791.347 
    2370 4.8464064e-15   -796.72258            0   -796.72258    13791.347 
    2371 4.403876e-18   -796.72258            0   -796.72258    13791.347 
    2372 5.4987384e-20   -796.72258            0   -796.72258    13791.347 
    2373 3.177937e-20   -796.72258            0   -796.72258    13791.347 
    2374 3.4909814e-20   -796.72258            0   -796.72258    13791.347 
    2375 3.9618595e-20   -796.72258            0   -796.72258    13791.347 
    2376 4.4653709e-20   -796.72258            0   -796.72258    13791.347 
    2377 5.0159756e-20   -796.72258            0   -796.72258    13791.347 
    2378 5.5725015e-20   -796.72258            0   -796.72258    13791.347 
    2379 6.1770442e-20   -796.72258            0   -796.72258    13791.347 
    2380 6.7893301e-20   -796.72258            0   -796.72258    13791.347 
    2381 7.4672821e-20   -796.72258            0   -796.72258    13791.347 
    2382 8.0970352e-20   -796.72258            0   -796.72258    13791.347 
    2383 8.8630644e-20   -796.72258            0   -796.72258    13791.347 
    2384 9.536794e-20   -796.72258            0   -796.72258    13791.347 
    2385 1.042699e-19   -796.72258            0   -796.72258    13791.347 
    2386 1.1260728e-19   -796.72258            0   -796.72258    13791.347 
    2387 1.3053751e-19   -796.72258            0   -796.72258    13791.347 
    2388 1.7132305e-19   -796.72258            0   -796.72258    13791.347 
    2389 3.8341744e-19   -796.72258            0   -796.72258    13791.347 
    2390 1.5459397e-18   -796.72258            0   -796.72258    13791.347 
    2391 9.5777777e-18   -796.72258            0   -796.72258    13791.347 
    2392 7.0651486e-17   -796.72258            0   -796.72258    13791.347 
    2393 5.978205e-16   -796.72258            0   -796.72258    13791.347 
    2394 5.6785891e-15   -796.72258            0   -796.72258    13791.347 
    2395 6.0417977e-14   -796.72258            0   -796.72258    13791.347 
    2396 7.1631863e-13   -796.72258            0   -796.72258    13791.347 
    2397 9.2521049e-12   -796.72258            0   -796.72258    13791.347 
    2398 9.7011726e-11   -796.72258            0   -796.72258    13791.347 
    2399 6.1365335e-11   -796.72258            0   -796.72258    13791.347 
    2400 4.8004982e-14   -796.72258            0   -796.72258    13791.347 
    2401 1.4288999e-16   -796.72258            0   -796.72258    13791.347 
    2402 4.0557399e-18   -796.72258            0   -796.72258    13791.347 
    2403 3.5304759e-19   -796.72258            0   -796.72258    13791.347 
    2404 7.4881313e-20   -796.72258            0   -796.72258    13791.347 
    2405 3.724297e-20   -796.72258            0   -796.72258    13791.347 
    2406 3.1230718e-20   -796.72258            0   -796.72258    13791.347 
    2407 3.1450744e-20   -796.72258            0   -796.72258    13791.347 
    2408 3.3930269e-20   -796.72258            0   -796.72258    13791.347 
    2409 3.7055218e-20   -796.72258            0   -796.72258    13791.347 
    2410 4.1276668e-20   -796.72258            0   -796.72258    13791.347 
    2411 4.6806131e-20   -796.72258            0   -796.72258    13791.347 
    2412 5.5466083e-20   -796.72258            0   -796.72258    13791.347 
    2413 7.2958739e-20   -796.72258            0   -796.72258    13791.347 
    2414 1.1775781e-19   -796.72258            0   -796.72258    13791.347 
    2415 2.6081821e-19   -796.72258            0   -796.72258    13791.347 
    2416 8.0560023e-19   -796.72258            0   -796.72258    13791.347 
    2417 3.2018512e-18   -796.72258            0   -796.72258    13791.347 
    2418 1.5198787e-17   -796.72258            0   -796.72258    13791.347 
    2419 8.3102199e-17   -796.72258            0   -796.72258    13791.347 
    2420 5.1636148e-16   -796.72258            0   -796.72258    13791.347 
    2421 3.6171794e-15   -796.72258            0   -796.72258    13791.347 
    2422 2.8117778e-14   -796.72258            0   -796.72258    13791.347 
    2423 2.1896162e-13   -796.72258            0   -796.72258    13791.347 
    2424 7.9521736e-13   -796.72258            0   -796.72258    13791.347 
    2425 1.2351256e-13   -796.72258            0   -796.72258    13791.347 
    2426 3.3019419e-14   -796.72258            0   -796.72258    13791.347 
    2427 1.0758558e-15   -796.72258            0   -796.72258    13791.347 
    2428 2.0350901e-18   -796.72258            0   -796.72258    13791.347 
    2429 1.9109727e-20   -796.72258            0   -796.72258    13791.347 
    2430 9.7885816e-21   -796.72258            0   -796.72258    13791.347 
    2431 1.0883783e-20   -796.72258            0   -796.72258    13791.347 
    2432 1.2451978e-20   -796.72258            0   -796.72258    13791.347 
    2433 1.4116254e-20   -796.72258            0   -796.72258    13791.347 
    2434 1.5953062e-20   -796.72258            0   -796.72258    13791.347 
    2435 1.7796236e-20   -796.72258            0   -796.72258    13791.347 
    2436 1.9827483e-20   -796.72258            0   -796.72258    13791.347 
    2437 2.1836169e-20   -796.72258            0   -796.72258    13791.347 
    2438 2.4087478e-20   -796.72258            0   -796.72258    13791.347 
    2439 2.6282417e-20   -796.72258            0   -796.72258    13791.347 
    2440 2.8706748e-20   -796.72258            0   -796.72258    13791.347 
    2441 3.1165354e-20   -796.72258            0   -796.72258    13791.347 
    2442 3.3895831e-20   -796.72258            0   -796.72258    13791.347 
    2443 3.7210161e-20   -796.72258            0   -796.72258    13791.347 
    2444 4.2118363e-20   -796.72258            0   -796.72258    13791.347 
    2445 5.4235286e-20   -796.72258            0   -796.72258    13791.347 
    2446 9.9803072e-20   -796.72258            0   -796.72258    13791.347 
    2447 3.3452312e-19   -796.72258            0   -796.72258    13791.347 
    2448 1.7513019e-18   -796.72258            0   -796.72258    13791.347 
    2449 1.1601597e-17   -796.72258            0   -796.72258    13791.347 
    2450 8.9052235e-17   -796.72258            0   -796.72258    13791.347 
    2451 7.7339992e-16   -796.72258            0   -796.72258    13791.347 
    2452 7.5410221e-15   -796.72258            0   -796.72258    13791.347 
    2453 8.1417421e-14   -796.72258            0   -796.72258    13791.347 
    2454 8.6491278e-13   -796.72258            0   -796.72258    13791.347 
    2455 2.8372911e-12   -796.72258            0   -796.72258    13791.347 
    2456 7.0762077e-14   -796.72258            0   -796.72258    13791.347 
    2457 8.1027169e-14   -796.72258            0   -796.72258    13791.347 
    2458 6.1081321e-14   -796.72258            0   -796.72258    13791.347 
    2459 2.443755e-14   -796.72258            0   -796.72258    13791.347 
    2460 4.6757326e-15   -796.72258            0   -796.72258    13791.347 
    2461 4.1232184e-16   -796.72258            0   -796.72258    13791.347 
    2462 1.2955269e-17   -796.72258            0   -796.72258    13791.347 
    2463 7.0464934e-20   -796.72258            0   -796.72258    13791.347 
    2464 4.6795504e-21   -796.72258            0   -796.72258    13791.347 
    2465 5.2303561e-21   -796.72258            0   -796.72258    13791.347 
    2466 6.0596906e-21   -796.72258            0   -796.72258    13791.347 
    2467 6.9418735e-21   -796.72258            0   -796.72258    13791.347 
    2468 7.8989682e-21   -796.72258            0   -796.72258    13791.347 
    2469 8.8969678e-21   -796.72258            0   -796.72258    13791.347 
    2470 9.9839003e-21   -796.72258            0   -796.72258    13791.347 
    2471 1.106157e-20   -796.72258            0   -796.72258    13791.347 
    2472 1.2227889e-20   -796.72258            0   -796.72258    13791.347 
    2473 1.3428678e-20   -796.72258            0   -796.72258    13791.347 
    2474 1.4699431e-20   -796.72258            0   -796.72258    13791.347 
    2475 1.6044099e-20   -796.72258            0   -796.72258    13791.347 
    2476 1.7407519e-20   -796.72258            0   -796.72258    13791.347 
    2477 1.8891623e-20   -796.72258            0   -796.72258    13791.347 
    2478 2.049027e-20   -796.72258            0   -796.72258    13791.347 
    2479 2.268119e-20   -796.72258            0   -796.72258    13791.347 
    2480 2.6370925e-20   -796.72258            0   -796.72258    13791.347 
    2481 3.8815335e-20   -796.72258            0   -796.72258    13791.347 
    2482 9.0607906e-20   -796.72258            0   -796.72258    13791.347 
    2483 3.856794e-19   -796.72258            0   -796.72258    13791.347 
    2484  2.26326e-18   -796.72258            0   -796.72258    13791.347 
    2485 1.6017632e-17   -796.72258            0   -796.72258    13791.347 
    2486 1.2901703e-16   -796.72258            0   -796.72258    13791.347 
    2487 1.1727709e-15   -796.72258            0   -796.72258    13791.347 
    2488 1.1954122e-14   -796.72258            0   -796.72258    13791.347 
    2489 1.3618163e-13   -796.72258            0   -796.72258    13791.347 
    2490 1.7206604e-12   -796.72258            0   -796.72258    13791.347 
    2491 2.2356242e-11   -796.72258            0   -796.72258    13791.347 
    2492 1.1357703e-10   -796.72258            0   -796.72258    13791.347 
    2493 5.1931864e-13   -796.72258            0   -796.72258    13791.347 
Loop time of 357.296 on 16 procs for 653 steps with 127 atoms

99.2% CPU use with 16 MPI tasks x no OpenMP threads

Minimization stats:
  Stopping criterion = energy tolerance
  Energy initial, next-to-last, final = 
        -796.722579047     -796.722579047     -796.722579047
  Force two-norm initial, final = 6.47661e-09 2.14028e-06
  Force max component initial, final = 1.0022e-09 5.03076e-07
  Final line search alpha, max atom move = 0 0
  Iterations, force evaluations = 653 653

MPI task timing breakdown:
Section |  min time  |  avg time  |  max time  |%varavg| %total
---------------------------------------------------------------
Pair    | 180.52     | 212.64     | 221.97     |  63.5 | 59.51
Neigh   | 0          | 0          | 0          |   0.0 |  0.00
Comm    | 0.045216   | 9.3732     | 41.5       | 302.3 |  2.62
Output  | 0.11001    | 0.1111     | 0.1127     |   0.2 |  0.03
Modify  | 0.076785   | 0.078247   | 0.078823   |   0.2 |  0.02
Other   |            | 135.1      |            |       | 37.81

Nlocal:    7.9375 ave 8 max 7 min
Histogram: 1 0 0 0 0 0 0 0 0 15
Nghost:    819.812 ave 825 max 816 min
Histogram: 4 0 0 0 8 0 2 0 1 1
Neighs:    0 ave 0 max 0 min
Histogram: 16 0 0 0 0 0 0 0 0 0
FullNghs:  1599.25 ave 1621 max 1405 min
Histogram: 1 0 0 0 0 0 0 0 0 15

Total # of neighbors = 25588
Ave neighs/atom = 201.48
Neighbor list builds = 0
Dangerous builds = 0
Total wall time: 0:22:55
