LAMMPS (12 Dec 2018)
Processor partition = 0
Reading data file ...
  orthogonal box = (0 0 0) to (10.0025 12.3537 10.615)
  2 by 4 by 2 MPI processor grid
  reading atoms ...
  127 atoms
Reading potential file lammps-force.nnp with DATE: 20201105
Neighbor list info ...
  update every 1 steps, delay 0 steps, check yes
  max neighbors/atom: 2000, page size: 100000
  master list distance cutoff = 8
  ghost atom cutoff = 8
  binsize = 4, bins = 3 4 3
  1 neighbor lists, perpetual/occasional/extra = 1 0 0
  (1) pair nnp3v, perpetual
      attributes: full, newton on
      pair build: full/bin/atomonly
      stencil: full/bin/3d
      bin: standard
Setting up quickmin style minimization ...
  Unit style    : metal
  Current step  : 0
Per MPI rank memory allocation (min/avg/max) = 2.736 | 2.736 | 2.736 Mbytes
Step Temp E_pair E_mol TotEng Press 
       0            0   -796.68047            0   -796.68047     13401.66 
       6  0.092325754   -796.68154            0   -796.68004    13408.421 
Loop time of 2.3999 on 16 procs for 6 steps with 127 atoms

98.9% CPU use with 16 MPI tasks x no OpenMP threads

Minimization stats:
  Stopping criterion = energy tolerance
  Energy initial, next-to-last, final = 
        -796.680469343     -796.681189813     -796.681544239
  Force two-norm initial, final = 0.292034 0.283352
  Force max component initial, final = 0.0445202 0.0435203
  Final line search alpha, max atom move = 0 0
  Iterations, force evaluations = 6 6

MPI task timing breakdown:
Section |  min time  |  avg time  |  max time  |%varavg| %total
---------------------------------------------------------------
Pair    | 2.0119     | 2.296      | 2.3975     |   5.6 | 95.67
Neigh   | 0          | 0          | 0          |   0.0 |  0.00
Comm    | 0.0019879  | 0.10344    | 0.3875     |  26.4 |  4.31
Output  | 0          | 0          | 0          |   0.0 |  0.00
Modify  | 0          | 0          | 0          |   0.0 |  0.00
Other   |            | 0.0004597  |            |       |  0.02

Nlocal:    7.9375 ave 8 max 7 min
Histogram: 1 0 0 0 0 0 0 0 0 15
Nghost:    819.812 ave 824 max 816 min
Histogram: 4 0 0 0 0 8 0 1 1 2
Neighs:    0 ave 0 max 0 min
Histogram: 16 0 0 0 0 0 0 0 0 0
FullNghs:  1602 ave 1623 max 1420 min
Histogram: 1 0 0 0 0 0 0 0 1 14

Total # of neighbors = 25632
Ave neighs/atom = 201.827
Neighbor list builds = 0
Dangerous builds = 0
Reading NEB coordinate file(s) ...
Setting up quickmin style minimization ...
  Unit style    : metal
  Current step  : 0
Per MPI rank memory allocation (min/avg/max) = 4.736 | 4.737 | 4.737 Mbytes
Step Temp E_pair E_mol TotEng Press 
       0            0   -796.68154            0   -796.68154    13407.197 
       1 0.0021307764   -796.68154            0   -796.68151    13407.225 
       2 0.0097232372   -796.68162            0   -796.68146    13407.722 
       3  0.026127312   -796.68178            0   -796.68135    13408.793 
       4  0.060256746   -796.68205            0   -796.68107    13410.701 
       5   0.13407821   -796.68248            0    -796.6803    13413.987 
       6   0.29853079   -796.68315            0   -796.67829     13419.72 
       7   0.65146976   -796.68415            0   -796.67354    13429.698 
       8    1.2953955   -796.68555            0   -796.66445     13445.69 
       9    2.3496861    -796.6874            0   -796.64913    13469.715 
      10    3.9117344    -796.6897            0     -796.626    13503.517 
      11    5.8780609    -796.6924            0   -796.59667    13545.748 
      12    6.0542103   -796.69498            0   -796.59638    13564.717 
      13   0.14153514   -796.69534            0   -796.69303    13488.615 
      14   0.32905751   -796.69589            0   -796.69053    13494.806 
      15   0.37279227   -796.69647            0    -796.6904     13499.36 
      16   0.43841508   -796.69709            0   -796.68995    13504.544 
      17   0.51118974   -796.69775            0   -796.68943    13510.186 
      18   0.59049275   -796.69846            0   -796.68884    13516.278 
      19   0.67637124    -796.6992            0   -796.68818    13522.824 
      20   0.76880987   -796.69997            0   -796.68745    13529.828 
      21   0.86779587   -796.70077            0   -796.68664    13537.289 
      22   0.97322681    -796.7016            0   -796.68575    13545.201 
      23    1.0849813   -796.70246            0   -796.68479     13553.56 
      24    1.2027265   -796.70334            0   -796.68375    13562.355 
      25    1.3256087   -796.70423            0   -796.68264    13571.572 
      26    1.4488972   -796.70513            0   -796.68153     13581.11 
      27    1.5415501   -796.70603            0   -796.68092    13590.487 
      28    1.3783113   -796.70685            0    -796.6844    13595.928 
      29   0.42021826   -796.70728            0   -796.70044    13587.429 
      30   0.04811672   -796.70742            0   -796.70663    13583.784 
      31  0.073480666   -796.70759            0   -796.70639    13585.758 
      32  0.090912288   -796.70778            0    -796.7063    13587.832 
      33   0.10830899   -796.70798            0   -796.70622    13590.086 
      34   0.12717376    -796.7082            0   -796.70613    13592.537 
      35   0.14754046   -796.70844            0   -796.70604    13595.184 
      36   0.16940439   -796.70869            0   -796.70593    13598.025 
      37    0.1927596   -796.70896            0   -796.70582    13601.055 
      38   0.21759904   -796.70924            0    -796.7057    13604.275 
      39   0.24391641   -796.70953            0   -796.70556    13607.684 
      40   0.27170492   -796.70984            0   -796.70541    13611.279 
      41   0.30095833   -796.71015            0   -796.70525    13615.058 
      42   0.33167145   -796.71048            0   -796.70508    13619.017 
      43   0.36384085   -796.71082            0   -796.70489    13623.153 
      44   0.39746599   -796.71116            0   -796.70469    13627.462 
      45   0.43254915   -796.71151            0   -796.70447     13631.94 
      46   0.46909804   -796.71187            0   -796.70423    13636.584 
      47   0.50712684   -796.71224            0   -796.70398    13641.387 
      48   0.54665753   -796.71261            0   -796.70371    13646.343 
      49   0.58772265   -796.71298            0   -796.70341    13651.448 
      50   0.63036588   -796.71336            0   -796.70309    13656.697 
      51   0.67464592   -796.71374            0   -796.70275    13662.085 
      52    0.7206375   -796.71412            0   -796.70239    13667.604 
      53   0.76843991    -796.7145            0   -796.70199    13673.244 
      54   0.81815566   -796.71489            0   -796.70156    13678.996 
      55   0.86992763   -796.71527            0    -796.7011    13684.857 
      56   0.92329666   -796.71564            0   -796.70061    13690.811 
      57   0.96960694   -796.71602            0   -796.70022    13696.701 
      58   0.83858004   -796.71635            0   -796.70269    13699.764 
      59  0.058576235   -796.71643            0   -796.71548     13690.64 
      60  0.012864735   -796.71647            0   -796.71626    13690.554 
      61  0.017463686   -796.71651            0   -796.71623    13691.237 
      62  0.021714854   -796.71656            0   -796.71621    13691.995 
      63  0.026210987   -796.71662            0   -796.71619    13692.829 
      64  0.031108318   -796.71667            0   -796.71617    13693.741 
      65  0.036419799   -796.71674            0   -796.71614    13694.728 
      66  0.042144704    -796.7168            0   -796.71612     13695.79 
      67  0.048281922   -796.71688            0   -796.71609    13696.926 
      68  0.054830417   -796.71695            0   -796.71606    13698.135 
      69  0.061789284   -796.71703            0   -796.71603    13699.416 
      70  0.069157833   -796.71712            0   -796.71599    13700.766 
      71  0.076935604   -796.71721            0   -796.71595    13702.185 
      72   0.08512249    -796.7173            0   -796.71591    13703.671 
      73  0.093718737   -796.71739            0   -796.71587    13705.223 
      74   0.10272496   -796.71749            0   -796.71582    13706.837 
      75   0.11214222   -796.71759            0   -796.71577    13708.513 
      76   0.12197205    -796.7177            0   -796.71571    13710.249 
      77   0.13221671   -796.71781            0   -796.71566    13712.042 
      78   0.14287889   -796.71792            0   -796.71559     13713.89 
      79     0.153962   -796.71803            0   -796.71553     13715.79 
      80   0.16547025   -796.71815            0   -796.71545    13717.738 
      81   0.17740761   -796.71827            0   -796.71538    13719.733 
      82   0.18977951   -796.71839            0    -796.7153    13721.775 
      83   0.20259161   -796.71851            0   -796.71521    13723.858 
      84   0.21585053   -796.71864            0   -796.71512    13725.982 
      85   0.22956231   -796.71876            0   -796.71502    13728.143 
      86   0.24373579   -796.71889            0   -796.71492    13730.337 
      87   0.25837488   -796.71902            0   -796.71481    13732.564 
      88   0.27349096   -796.71914            0   -796.71469    13734.815 
      89   0.28905218   -796.71927            0   -796.71457    13737.104 
      90   0.30482832    -796.7194            0   -796.71444    13739.355 
      91   0.31604841   -796.71953            0   -796.71439    13741.745 
      92   0.25543023   -796.71965            0   -796.71549    13742.193 
      93  0.015673946   -796.71967            0   -796.71942    13739.889 
      94   0.01284371    -796.7197            0   -796.71949     13740.21 
      95   0.01503778   -796.71972            0   -796.71948    13740.651 
      96  0.017411536   -796.71975            0   -796.71947    13741.125 
      97   0.01995654   -796.71978            0   -796.71945    13741.632 
      98  0.022672211   -796.71981            0   -796.71944    13742.171 
      99    0.0255578   -796.71984            0   -796.71943    13742.742 
     100  0.028612467   -796.71988            0   -796.71941    13743.344 
     101  0.031835313   -796.71991            0    -796.7194    13743.976 
     102  0.035225379   -796.71995            0   -796.71938    13744.638 
     103  0.038781645   -796.71999            0   -796.71936    13745.328 
     104  0.042502991   -796.72003            0   -796.71934    13746.047 
     105  0.046388222   -796.72008            0   -796.71932    13746.793 
     106  0.050436054   -796.72012            0    -796.7193    13747.564 
     107  0.054645097   -796.72017            0   -796.71928    13748.361 
     108  0.059013817   -796.72021            0   -796.71925    13749.183 
     109  0.063540594   -796.72026            0   -796.71923    13750.027 
     110  0.068223628   -796.72031            0    -796.7192    13750.894 
     111   0.07306091   -796.72036            0   -796.71917    13751.783 
     112  0.078050379   -796.72042            0   -796.71914    13752.691 
     113  0.083189573   -796.72047            0   -796.71911    13753.619 
     114  0.088475845   -796.72052            0   -796.71908    13754.564 
     115  0.093906235   -796.72058            0   -796.71905    13755.526 
     116  0.099477206   -796.72063            0   -796.71901    13756.504 
     117   0.10518344   -796.72069            0   -796.71898    13757.495 
     118   0.11100578   -796.72075            0   -796.71894    13758.499 
     119   0.11678925    -796.7208            0    -796.7189    13759.511 
     120   0.12086425   -796.72086            0   -796.71889    13760.504 
     121   0.10572235   -796.72091            0   -796.71919    13761.157 
     122  0.022474287   -796.72094            0   -796.72057    13760.445 
     123 0.0014736143   -796.72094            0   -796.72092    13760.252 
     124 0.0024088413   -796.72095            0   -796.72091    13760.379 
     125   0.00334469   -796.72096            0    -796.7209    13760.529 
     126 0.0042215501   -796.72097            0    -796.7209    13760.697 
     127 0.0051481785   -796.72098            0   -796.72089    13760.883 
     128 0.0061604316   -796.72099            0   -796.72089    13761.087 
     129 0.0072615958     -796.721            0   -796.72088    13761.309 
     130 0.0084511565   -796.72102            0   -796.72088    13761.549 
     131 0.0097284038   -796.72103            0   -796.72087    13761.806 
     132  0.011092562   -796.72105            0   -796.72087    13762.081 
     133  0.012542785   -796.72106            0   -796.72086    13762.372 
     134  0.014078157   -796.72108            0   -796.72085    13762.679 
     135  0.015697688    -796.7211            0   -796.72084    13763.003 
     136   0.01740031   -796.72112            0   -796.72084    13763.343 
     137  0.019184874   -796.72114            0   -796.72083    13763.698 
     138  0.021050146   -796.72116            0   -796.72082    13764.068 
     139  0.022994809   -796.72118            0   -796.72081    13764.452 
     140  0.025017453   -796.72121            0    -796.7208    13764.851 
     141  0.027116563   -796.72123            0   -796.72079    13765.264 
     142  0.029290547   -796.72125            0   -796.72078    13765.689 
     143  0.031537699   -796.72128            0   -796.72076    13766.126 
     144  0.033856201    -796.7213            0   -796.72075    13766.576 
     145  0.036244116   -796.72133            0   -796.72074    13767.037 
     146   0.03869937   -796.72136            0   -796.72073    13767.509 
     147  0.041219791   -796.72138            0   -796.72071    13767.992 
     148  0.043803064   -796.72141            0    -796.7207    13768.485 
     149  0.046446735   -796.72144            0   -796.72068    13768.988 
     150  0.049148209   -796.72147            0   -796.72067    13769.499 
     151  0.051904755    -796.7215            0   -796.72065    13770.019 
     152  0.054713447   -796.72153            0   -796.72064    13770.547 
     153  0.057571184   -796.72156            0   -796.72062    13771.081 
     154  0.060474094   -796.72159            0    -796.7206    13771.623 
     155  0.063414772   -796.72162            0   -796.72059    13772.169 
     156  0.066339892   -796.72165            0   -796.72057    13772.725 
     157  0.068687855   -796.72168            0   -796.72056    13773.257 
     158  0.063750616   -796.72171            0   -796.72067    13773.726 
     159  0.019786654   -796.72173            0    -796.7214    13773.323 
     160 0.00026810571   -796.72173            0   -796.72172      13773.1 
     161 0.00048372919   -796.72173            0   -796.72172    13773.151 
     162 0.00082252786   -796.72173            0   -796.72172    13773.215 
     163 0.0012432584   -796.72174            0   -796.72171    13773.289 
     164 0.0016664334   -796.72174            0   -796.72171    13773.371 
     165 0.0020965546   -796.72174            0   -796.72171    13773.459 
     166 0.0025617205   -796.72175            0   -796.72171    13773.555 
     167 0.0030707517   -796.72176            0   -796.72171     13773.66 
     168 0.0036244298   -796.72176            0    -796.7217    13773.775 
     169 0.0042223429   -796.72177            0    -796.7217    13773.899 
     170 0.0048639595   -796.72178            0    -796.7217    13774.032 
     171 0.0055487004   -796.72178            0   -796.72169    13774.174 
     172 0.0062759495   -796.72179            0   -796.72169    13774.325 
     173 0.0070450179    -796.7218            0   -796.72169    13774.485 
     174 0.0078551801   -796.72181            0   -796.72168    13774.653 
     175 0.0087056621   -796.72182            0   -796.72168     13774.83 
     176 0.0095956448   -796.72183            0   -796.72167    13775.015 
     177  0.010524251   -796.72184            0   -796.72167    13775.208 
     178  0.011490559   -796.72185            0   -796.72166    13775.409 
     179  0.012493605   -796.72186            0   -796.72166    13775.617 
     180  0.013532349   -796.72188            0   -796.72165    13775.833 
     181  0.014605708   -796.72189            0   -796.72165    13776.056 
     182  0.015712547    -796.7219            0   -796.72164    13776.286 
     183  0.016851677   -796.72191            0   -796.72164    13776.523 
     184  0.018021852   -796.72193            0   -796.72163    13776.767 
     185  0.019221774   -796.72194            0   -796.72163    13777.016 
     186  0.020450113   -796.72195            0   -796.72162    13777.272 
     187  0.021705429   -796.72197            0   -796.72161    13777.533 
     188  0.022986246   -796.72198            0   -796.72161      13777.8 
     189  0.024291034     -796.722            0    -796.7216    13778.072 
     190  0.025618202   -796.72201            0   -796.72159    13778.349 
     191  0.026966091   -796.72203            0   -796.72159    13778.631 
     192  0.028332991   -796.72204            0   -796.72158    13778.917 
     193  0.029717045   -796.72206            0   -796.72157    13779.206 
     194  0.031115576   -796.72207            0   -796.72156      13779.5 
     195  0.032517688   -796.72209            0   -796.72156    13779.797 
     196   0.03382433    -796.7221            0   -796.72155    13780.095 
     197  0.033882285   -796.72212            0   -796.72157    13780.373 
     198    0.0224303   -796.72213            0   -796.72176    13780.444 
     199 0.0011430083   -796.72213            0   -796.72211    13780.209 
     200 0.0019687867   -796.72214            0    -796.7221    13780.283 
     201 0.0022765362   -796.72214            0    -796.7221    13780.354 
     202 0.0026214676   -796.72214            0    -796.7221    13780.432 
     203 0.0029894365   -796.72215            0    -796.7221    13780.514 
     204 0.0033798928   -796.72215            0    -796.7221    13780.602 
     205 0.0037923983   -796.72216            0    -796.7221    13780.695 
     206 0.0042264916   -796.72216            0   -796.72209    13780.792 
     207 0.0046816823   -796.72217            0   -796.72209    13780.895 
     208 0.0051574521   -796.72217            0   -796.72209    13781.003 
     209 0.0056532562   -796.72218            0   -796.72209    13781.115 
     210 0.0061685188   -796.72218            0   -796.72208    13781.232 
     211 0.0067026367   -796.72219            0   -796.72208    13781.354 
     212 0.0072549782    -796.7222            0   -796.72208    13781.479 
     213 0.0078248862    -796.7222            0   -796.72208     13781.61 
     214 0.0084116701   -796.72221            0   -796.72207    13781.744 
     215 0.0090146143   -796.72222            0   -796.72207    13781.882 
     216 0.0096329726   -796.72222            0   -796.72207    13782.024 
     217  0.010265968   -796.72223            0   -796.72206     13782.17 
     218  0.010912802   -796.72224            0   -796.72206    13782.319 
     219  0.011572645   -796.72225            0   -796.72206    13782.472 
     220  0.012244589   -796.72225            0   -796.72205    13782.628 
     221  0.012927516   -796.72226            0   -796.72205    13782.788 
     222  0.013618964   -796.72227            0   -796.72205     13782.95 
     223  0.014307695   -796.72228            0   -796.72204    13783.116 
     224   0.01491516   -796.72229            0   -796.72204    13783.282 
     225  0.014832029   -796.72229            0   -796.72205    13783.438 
     226  0.010422259    -796.7223            0   -796.72213     13783.51 
     227 0.0015748659    -796.7223            0   -796.72228    13783.441 
     228  0.001185702    -796.7223            0   -796.72229    13783.477 
     229 0.0013771577   -796.72231            0   -796.72228    13783.525 
     230 0.0015881092   -796.72231            0   -796.72228    13783.576 
     231 0.0018131839   -796.72231            0   -796.72228    13783.631 
     232 0.0020520625   -796.72231            0   -796.72228     13783.69 
     233 0.0023044571   -796.72232            0   -796.72228    13783.752 
     234 0.0025700627   -796.72232            0   -796.72228    13783.817 
     235 0.0028485567   -796.72232            0   -796.72228    13783.886 
     236 0.0031395978   -796.72233            0   -796.72228    13783.958 
     237 0.0034428267   -796.72233            0   -796.72227    13784.033 
     238 0.0037578664   -796.72233            0   -796.72227    13784.111 
     239 0.0040843214   -796.72234            0   -796.72227    13784.193 
     240 0.0044217792   -796.72234            0   -796.72227    13784.277 
     241 0.0047698097   -796.72235            0   -796.72227    13784.365 
     242 0.0051279656   -796.72235            0   -796.72227    13784.455 
     243 0.0054957833   -796.72235            0   -796.72226    13784.549 
     244 0.0058727849   -796.72236            0   -796.72226    13784.645 
     245 0.0062584693   -796.72236            0   -796.72226    13784.743 
     246 0.0066523203   -796.72237            0   -796.72226    13784.844 
     247 0.0070538074   -796.72237            0   -796.72226    13784.948 
     248 0.0074623762   -796.72238            0   -796.72226    13785.054 
     249  0.007877428   -796.72238            0   -796.72225    13785.162 
     250  0.008298149   -796.72239            0   -796.72225    13785.273 
     251 0.0087224188   -796.72239            0   -796.72225    13785.385 
     252 0.0091383489    -796.7224            0   -796.72225    13785.499 
     253 0.0094558183    -796.7224            0   -796.72225    13785.614 
     254 0.0089552507   -796.72241            0   -796.72226    13785.713 
     255 0.0044889321   -796.72241            0   -796.72234    13785.728 
     256 0.0003721491   -796.72241            0    -796.7224    13785.694 
     257 0.00059561598   -796.72241            0    -796.7224    13785.723 
     258 0.00070880274   -796.72241            0    -796.7224    13785.752 
     259 0.00082748666   -796.72241            0    -796.7224    13785.785 
     260 0.00095483333   -796.72242            0    -796.7224    13785.819 
     261  0.001090674   -796.72242            0    -796.7224    13785.856 
     262 0.0012348374   -796.72242            0    -796.7224    13785.896 
     263 0.0013871409   -796.72242            0    -796.7224    13785.938 
     264 0.0015473899   -796.72242            0    -796.7224    13785.982 
     265 0.0017153786   -796.72242            0    -796.7224    13786.028 
     266 0.0018908894   -796.72243            0    -796.7224    13786.077 
     267 0.0020736938   -796.72243            0   -796.72239    13786.128 
     268 0.0022635523   -796.72243            0   -796.72239    13786.181 
     269 0.0024602141   -796.72243            0   -796.72239    13786.237 
     270 0.0026634181   -796.72244            0   -796.72239    13786.294 
     271 0.0028728882   -796.72244            0   -796.72239    13786.354 
     272 0.0030883458   -796.72244            0   -796.72239    13786.415 
     273 0.0033094986   -796.72244            0   -796.72239    13786.479 
     274 0.0035360431   -796.72245            0   -796.72239    13786.544 
     275 0.0037676662   -796.72245            0   -796.72239    13786.611 
     276 0.0040040456   -796.72245            0   -796.72239     13786.68 
     277 0.0042448503   -796.72245            0   -796.72238    13786.751 
     278 0.0044897378   -796.72246            0   -796.72238    13786.824 
     279 0.0047383571   -796.72246            0   -796.72238    13786.898 
     280 0.0049903505   -796.72246            0   -796.72238    13786.973 
     281 0.0052453451   -796.72247            0   -796.72238    13787.051 
     282 0.0055029489   -796.72247            0   -796.72238    13787.129 
     283 0.0057626597   -796.72247            0   -796.72238     13787.21 
     284 0.0060230742   -796.72247            0   -796.72238    13787.291 
     285 0.0062741421   -796.72248            0   -796.72238    13787.373 
     286 0.0064157443   -796.72248            0   -796.72238    13787.455 
     287 0.0054906931   -796.72248            0   -796.72239    13787.516 
     288 0.0012006416   -796.72248            0   -796.72246    13787.492 
     289 0.00011460558   -796.72248            0   -796.72248    13787.487 
     290 0.00018000938   -796.72249            0   -796.72248      13787.5 
     291 0.00023530893   -796.72249            0   -796.72248    13787.515 
     292 0.0002882288   -796.72249            0   -796.72248    13787.532 
     293 0.00034529698   -796.72249            0   -796.72248     13787.55 
     294 0.00040725102   -796.72249            0   -796.72248    13787.569 
     295 0.00047404009   -796.72249            0   -796.72248    13787.591 
     296 0.00054557695   -796.72249            0   -796.72248    13787.613 
     297 0.00062176731   -796.72249            0   -796.72248    13787.638 
     298 0.00070251006   -796.72249            0   -796.72248    13787.664 
     299 0.00078769737   -796.72249            0   -796.72248    13787.691 
     300 0.00087721476   -796.72249            0   -796.72248     13787.72 
     301 0.00097094123   -796.72249            0   -796.72248    13787.751 
     302 0.0010687493    -796.7225            0   -796.72248    13787.783 
     303 0.0011705052    -796.7225            0   -796.72248    13787.817 
     304 0.0012760687    -796.7225            0   -796.72248    13787.852 
     305 0.0013852936    -796.7225            0   -796.72248    13787.888 
     306 0.0014980275    -796.7225            0   -796.72248    13787.926 
     307 0.0016141122    -796.7225            0   -796.72248    13787.965 
     308 0.0017333835    -796.7225            0   -796.72247    13788.005 
     309 0.0018556717    -796.7225            0   -796.72247    13788.047 
     310 0.0019808012   -796.72251            0   -796.72247     13788.09 
     311 0.0021085921   -796.72251            0   -796.72247    13788.134 
     312 0.0022388587   -796.72251            0   -796.72247    13788.179 
     313 0.0023714088   -796.72251            0   -796.72247    13788.225 
     314 0.0025060459   -796.72251            0   -796.72247    13788.272 
     315  0.002642568   -796.72251            0   -796.72247    13788.321 
     316 0.0027807682   -796.72252            0   -796.72247     13788.37 
     317 0.0029204382   -796.72252            0   -796.72247    13788.421 
     318  0.003061356   -796.72252            0   -796.72247    13788.472 
     319 0.0032033144   -796.72252            0   -796.72247    13788.525 
     320 0.0033460551   -796.72252            0   -796.72247    13788.578 
     321 0.0034894242   -796.72252            0   -796.72247    13788.632 
     322 0.0036329776   -796.72253            0   -796.72247    13788.686 
     323 0.0037768691   -796.72253            0   -796.72247    13788.742 
     324 0.0039172706   -796.72253            0   -796.72246    13788.797 
     325  0.004030635   -796.72253            0   -796.72246    13788.858 
     326 0.0037086278   -796.72253            0   -796.72247    13788.891 
     327 0.00099858674   -796.72253            0   -796.72252    13788.908 
     328 4.8398047e-06   -796.72253            0   -796.72253    13788.894 
     329 9.8536083e-06   -796.72253            0   -796.72253    13788.894 
     330 1.8174231e-05   -796.72253            0   -796.72253    13788.894 
     331 3.1347597e-05   -796.72253            0   -796.72253    13788.895 
     332 4.9450773e-05   -796.72253            0   -796.72253    13788.898 
     333 6.9933899e-05   -796.72253            0   -796.72253    13788.903 
     334 9.1364024e-05   -796.72253            0   -796.72253     13788.91 
     335 0.00011449009   -796.72253            0   -796.72253    13788.919 
     336 0.00013992182   -796.72253            0   -796.72253    13788.929 
     337 0.00016777728   -796.72253            0   -796.72253    13788.939 
     338 0.0001980362   -796.72253            0   -796.72253    13788.951 
     339 0.00023066029   -796.72254            0   -796.72253    13788.964 
     340 0.00026560592   -796.72254            0   -796.72253    13788.978 
     341 0.00030282505   -796.72254            0   -796.72253    13788.992 
     342 0.00034226587   -796.72254            0   -796.72253    13789.008 
     343 0.00038387305   -796.72254            0   -796.72253    13789.025 
     344 0.00042758791   -796.72254            0   -796.72253    13789.042 
     345 0.00047334842   -796.72254            0   -796.72253    13789.061 
     346 0.00052108925   -796.72254            0   -796.72253     13789.08 
     347 0.00057074205   -796.72254            0   -796.72253      13789.1 
     348 0.00062223521   -796.72254            0   -796.72253    13789.121 
     349 0.00067549364   -796.72254            0   -796.72253    13789.143 
     350 0.00073043935   -796.72254            0   -796.72253    13789.166 
     351 0.00078699141   -796.72254            0   -796.72253    13789.189 
     352 0.00084506592   -796.72254            0   -796.72253    13789.213 
     353 0.00090457618   -796.72254            0   -796.72253    13789.239 
     354 0.00096543258   -796.72254            0   -796.72253    13789.264 
     355 0.0010275428   -796.72254            0   -796.72253    13789.291 
     356 0.0010908119   -796.72254            0   -796.72253    13789.319 
     357 0.0011551424   -796.72255            0   -796.72253    13789.346 
     358 0.0012204349   -796.72255            0   -796.72253    13789.375 
     359 0.0012865863   -796.72255            0   -796.72253    13789.404 
     360   0.00135349   -796.72255            0   -796.72253    13789.434 
     361   0.00142104   -796.72255            0   -796.72253    13789.465 
     362 0.0014891244   -796.72255            0   -796.72253    13789.496 
     363  0.001557638   -796.72255            0   -796.72253    13789.528 
     364   0.00162645   -796.72255            0   -796.72252     13789.56 
     365 0.0016954864   -796.72255            0   -796.72252    13789.593 
     366  0.001764507   -796.72255            0   -796.72252    13789.626 
     367 0.0018336773   -796.72255            0   -796.72252    13789.661 
     368 0.0019011748   -796.72255            0   -796.72252     13789.69 
     369 0.0019611675   -796.72256            0   -796.72252    13789.746 
     370 0.0018740677   -796.72256            0   -796.72253    13789.698 
     371 0.00070019233   -796.72256            0   -796.72255    13789.817 
     372 1.6370854e-05   -796.72256            0   -796.72256    13789.793 
     373 2.2932065e-05   -796.72256            0   -796.72256    13789.779 
     374 2.9557316e-05   -796.72256            0   -796.72256    13789.769 
     375 3.699465e-05   -796.72256            0   -796.72256    13789.765 
     376 4.6369609e-05   -796.72256            0   -796.72256    13789.766 
     377 5.7611035e-05   -796.72256            0   -796.72256    13789.771 
     378 7.0277613e-05   -796.72256            0   -796.72256    13789.776 
     379 8.4182102e-05   -796.72256            0   -796.72256    13789.783 
     380 9.9278384e-05   -796.72256            0   -796.72256    13789.791 
     381 0.00011554456   -796.72256            0   -796.72256    13789.799 
     382 0.00013295778   -796.72256            0   -796.72256    13789.807 
     383 0.0001514929   -796.72256            0   -796.72256    13789.816 
     384 0.0001711229   -796.72256            0   -796.72256    13789.826 
     385 0.00019181895   -796.72256            0   -796.72256    13789.836 
     386 0.00021355047   -796.72256            0   -796.72256    13789.847 
     387 0.00023628515   -796.72256            0   -796.72256    13789.859 
     388 0.00025998898   -796.72256            0   -796.72256    13789.871 
     389 0.00028462629   -796.72256            0   -796.72255    13789.884 
     390 0.00031015974   -796.72256            0   -796.72255    13789.897 
     391 0.00033655041   -796.72256            0   -796.72255     13789.91 
     392 0.00036375777   -796.72256            0   -796.72255    13789.925 
     393 0.00039173976   -796.72256            0   -796.72255    13789.939 
     394 0.0004204528   -796.72256            0   -796.72255    13789.955 
     395 0.00044985183   -796.72256            0   -796.72255     13789.97 
     396 0.00047989036   -796.72256            0   -796.72255    13789.987 
     397 0.00051052045   -796.72256            0   -796.72255    13790.003 
     398 0.00054169283   -796.72256            0   -796.72255    13790.021 
     399 0.00057335684   -796.72256            0   -796.72255    13790.038 
     400 0.00060546056   -796.72256            0   -796.72255    13790.056 
     401 0.00063795076   -796.72256            0   -796.72255    13790.075 
     402 0.00067077298   -796.72256            0   -796.72255    13790.094 
     403 0.00070387158   -796.72256            0   -796.72255    13790.113 
     404 0.00073718969   -796.72256            0   -796.72255    13790.133 
     405 0.00077066952   -796.72257            0   -796.72255    13790.153 
     406 0.00080425182   -796.72257            0   -796.72255    13790.174 
     407 0.00083787611   -796.72257            0   -796.72255    13790.195 
     408 0.00087148113   -796.72257            0   -796.72255    13790.216 
     409 0.00090500524   -796.72257            0   -796.72255    13790.238 
     410 0.0009383802   -796.72257            0   -796.72255    13790.259 
     411 0.00097150937   -796.72257            0   -796.72255    13790.285 
     412 0.0010037045   -796.72257            0   -796.72255    13790.291 
     413 0.0010241049   -796.72257            0   -796.72255    13790.379 
     414 0.00082233742   -796.72257            0   -796.72256    13790.198 
     415 1.3746776e-05   -796.72257            0   -796.72257     13790.22 
     416 1.8498502e-05   -796.72257            0   -796.72257    13790.258 
     417 2.1602525e-05   -796.72257            0   -796.72257    13790.295 
     418 2.2528809e-05   -796.72257            0   -796.72257    13790.322 
     419 2.4812177e-05   -796.72257            0   -796.72257    13790.335 
     420 2.9825571e-05   -796.72257            0   -796.72257    13790.342 
     421 3.6018715e-05   -796.72257            0   -796.72257    13790.347 
     422 4.2840128e-05   -796.72257            0   -796.72257    13790.351 
     423 5.0221821e-05   -796.72257            0   -796.72257    13790.356 
     424 5.8150597e-05   -796.72257            0   -796.72257    13790.361 
     425 6.6614362e-05   -796.72257            0   -796.72257    13790.366 
     426 7.560014e-05   -796.72257            0   -796.72257    13790.372 
     427 8.509407e-05   -796.72257            0   -796.72257    13790.379 
     428 9.5081408e-05   -796.72257            0   -796.72257    13790.385 
     429 0.00010554654   -796.72257            0   -796.72257    13790.392 
     430 0.00011647301   -796.72257            0   -796.72257    13790.399 
     431 0.0001278435   -796.72257            0   -796.72257    13790.407 
     432 0.00013963988   -796.72257            0   -796.72257    13790.415 
     433 0.00015184322   -796.72257            0   -796.72257    13790.424 
     434 0.00016443378   -796.72257            0   -796.72257    13790.432 
     435 0.00017739104   -796.72257            0   -796.72257    13790.441 
     436 0.00019069373   -796.72257            0   -796.72257    13790.451 
     437 0.00020431984   -796.72257            0   -796.72257     13790.46 
     438 0.00021824661   -796.72257            0   -796.72257     13790.47 
     439 0.00023245059   -796.72257            0   -796.72257    13790.481 
     440 0.00024690764   -796.72257            0   -796.72257    13790.491 
     441 0.00026159293   -796.72257            0   -796.72257    13790.502 
     442 0.00027648099   -796.72257            0   -796.72257    13790.513 
     443 0.00029154571   -796.72257            0   -796.72257    13790.525 
     444 0.00030676033   -796.72257            0   -796.72257    13790.537 
     445 0.00032209754   -796.72257            0   -796.72257    13790.549 
     446 0.00033752938   -796.72257            0   -796.72257    13790.561 
     447 0.00035302739   -796.72257            0   -796.72257    13790.574 
     448 0.00036856236   -796.72257            0   -796.72257    13790.586 
     449 0.0003841044   -796.72257            0   -796.72257    13790.599 
     450 0.0003996166   -796.72257            0   -796.72257    13790.613 
     451 0.00041500087   -796.72257            0   -796.72257    13790.625 
     452 0.00042929379   -796.72257            0   -796.72257    13790.643 
     453 0.00042977802   -796.72257            0   -796.72257    13790.642 
     454 0.00028424929   -796.72257            0   -796.72257    13790.693 
     455 1.0379149e-05   -796.72257            0   -796.72257    13790.673 
     456 1.6899154e-05   -796.72257            0   -796.72257    13790.664 
     457 2.0220783e-05   -796.72257            0   -796.72257    13790.665 
     458 2.3887663e-05   -796.72257            0   -796.72257    13790.668 
     459 2.7867192e-05   -796.72257            0   -796.72257    13790.671 
     460 3.2130097e-05   -796.72257            0   -796.72257    13790.675 
     461 3.6669524e-05   -796.72257            0   -796.72257    13790.679 
     462 4.1478134e-05   -796.72257            0   -796.72257    13790.683 
     463 4.6548092e-05   -796.72257            0   -796.72257    13790.687 
     464 5.1871084e-05   -796.72257            0   -796.72257    13790.692 
     465 5.7438318e-05   -796.72257            0   -796.72257    13790.696 
     466 6.3240535e-05   -796.72257            0   -796.72257    13790.701 
     467 6.9268018e-05   -796.72257            0   -796.72257    13790.707 
     468 7.5510597e-05   -796.72257            0   -796.72257    13790.712 
     469 8.195766e-05   -796.72257            0   -796.72257    13790.718 
     470 8.8598164e-05   -796.72257            0   -796.72257    13790.724 
     471 9.5420638e-05   -796.72257            0   -796.72257     13790.73 
     472 0.0001024132   -796.72257            0   -796.72257    13790.736 
     473 0.00010956356   -796.72257            0   -796.72257    13790.743 
     474 0.00011685905   -796.72258            0   -796.72257     13790.75 
     475 0.00012428657   -796.72258            0   -796.72257    13790.757 
     476 0.0001318327   -796.72258            0   -796.72257    13790.764 
     477 0.00013948364   -796.72258            0   -796.72257    13790.771 
     478 0.00014722521   -796.72258            0   -796.72257    13790.779 
     479 0.00015504292   -796.72258            0   -796.72257    13790.787 
     480 0.00016292193   -796.72258            0   -796.72257    13790.795 
     481 0.00017084684   -796.72258            0   -796.72257    13790.803 
     482 0.00017880109   -796.72258            0   -796.72257    13790.811 
     483 0.00018675662   -796.72258            0   -796.72257     13790.82 
     484 0.00019458591   -796.72258            0   -796.72257    13790.828 
     485 0.00020106599   -796.72258            0   -796.72257    13790.838 
     486 0.00019317373   -796.72258            0   -796.72257    13790.843 
     487 9.1869636e-05   -796.72258            0   -796.72257    13790.856 
     488   2.6652e-06   -796.72258            0   -796.72258    13790.853 
     489 4.9964797e-06   -796.72258            0   -796.72258    13790.852 
     490 7.336221e-06   -796.72258            0   -796.72258    13790.853 
     491   9.1606e-06   -796.72258            0   -796.72258    13790.855 
     492 1.1053399e-05   -796.72258            0   -796.72258    13790.857 
     493 1.3111377e-05   -796.72258            0   -796.72258    13790.859 
     494 1.5333627e-05   -796.72258            0   -796.72258    13790.861 
     495 1.771641e-05   -796.72258            0   -796.72258    13790.864 
     496 2.0255706e-05   -796.72258            0   -796.72258    13790.866 
     497  2.29472e-05   -796.72258            0   -796.72258    13790.869 
     498 2.5786286e-05   -796.72258            0   -796.72258    13790.872 
     499 2.8768068e-05   -796.72258            0   -796.72258    13790.875 
     500 3.188737e-05   -796.72258            0   -796.72258    13790.879 
     501 3.5138734e-05   -796.72258            0   -796.72258    13790.882 
     502 3.8516433e-05   -796.72258            0   -796.72258    13790.886 
     503 4.2014467e-05   -796.72258            0   -796.72258     13790.89 
     504 4.5626577e-05   -796.72258            0   -796.72258    13790.894 
     505 4.9346246e-05   -796.72258            0   -796.72258    13790.898 
     506 5.3166703e-05   -796.72258            0   -796.72258    13790.903 
     507 5.7080935e-05   -796.72258            0   -796.72258    13790.907 
     508 6.1081689e-05   -796.72258            0   -796.72258    13790.912 
     509 6.5161476e-05   -796.72258            0   -796.72258    13790.917 
     510 6.9312586e-05   -796.72258            0   -796.72258    13790.922 
     511 7.3527084e-05   -796.72258            0   -796.72258    13790.927 
     512 7.7796824e-05   -796.72258            0   -796.72258    13790.932 
     513 8.2113452e-05   -796.72258            0   -796.72258    13790.938 
     514 8.6468417e-05   -796.72258            0   -796.72258    13790.943 
     515 9.085297e-05   -796.72258            0   -796.72258    13790.949 
     516 9.5258182e-05   -796.72258            0   -796.72258    13790.955 
     517 9.9674935e-05   -796.72258            0   -796.72258    13790.961 
     518 0.00010409392   -796.72258            0   -796.72258    13790.967 
     519 0.00010850537   -796.72258            0   -796.72258    13790.973 
     520 0.00011289641   -796.72258            0   -796.72258     13790.98 
     521 0.00011721713   -796.72258            0   -796.72258    13790.986 
     522 0.00012093378   -796.72258            0   -796.72258    13790.992 
     523 0.00011694019   -796.72258            0   -796.72258    13790.999 
     524 5.2211992e-05   -796.72258            0   -796.72258    13791.002 
     525 4.4128018e-07   -796.72258            0   -796.72258    13791.002 
     526 8.3173305e-07   -796.72258            0   -796.72258    13791.002 
     527 1.5149022e-06   -796.72258            0   -796.72258    13791.003 
     528 2.4172242e-06   -796.72258            0   -796.72258    13791.004 
     529 3.2823677e-06   -796.72258            0   -796.72258    13791.005 
     530 4.1389515e-06   -796.72258            0   -796.72258    13791.006 
     531 5.0692703e-06   -796.72258            0   -796.72258    13791.007 
     532 6.088069e-06   -796.72258            0   -796.72258    13791.008 
     533 7.1945034e-06   -796.72258            0   -796.72258     13791.01 
     534 8.3866234e-06   -796.72258            0   -796.72258    13791.012 
     535 9.6623005e-06   -796.72258            0   -796.72258    13791.013 
     536 1.101924e-05   -796.72258            0   -796.72258    13791.015 
     537 1.2454981e-05   -796.72258            0   -796.72258    13791.017 
     538 1.3966902e-05   -796.72258            0   -796.72258     13791.02 
     539 1.555222e-05   -796.72258            0   -796.72258    13791.022 
     540 1.7207998e-05   -796.72258            0   -796.72258    13791.024 
     541 1.893114e-05   -796.72258            0   -796.72258    13791.027 
     542 2.0718404e-05   -796.72258            0   -796.72258    13791.029 
     543 2.2566397e-05   -796.72258            0   -796.72258    13791.032 
     544 2.4471581e-05   -796.72258            0   -796.72258    13791.035 
     545 2.6430279e-05   -796.72258            0   -796.72258    13791.038 
     546 2.8438676e-05   -796.72258            0   -796.72258    13791.041 
     547 3.0492821e-05   -796.72258            0   -796.72258    13791.044 
     548 3.2588635e-05   -796.72258            0   -796.72258    13791.047 
     549 3.4721913e-05   -796.72258            0   -796.72258    13791.051 
     550 3.6888326e-05   -796.72258            0   -796.72258    13791.054 
     551 3.908343e-05   -796.72258            0   -796.72258    13791.058 
     552 4.1302664e-05   -796.72258            0   -796.72258    13791.062 
     553 4.3541361e-05   -796.72258            0   -796.72258    13791.065 
     554 4.5794746e-05   -796.72258            0   -796.72258    13791.069 
     555 4.8057947e-05   -796.72258            0   -796.72258    13791.073 
     556 5.0325989e-05   -796.72258            0   -796.72258    13791.077 
     557 5.2593795e-05   -796.72258            0   -796.72258    13791.082 
     558 5.4855992e-05   -796.72258            0   -796.72258    13791.086 
     559 5.7105067e-05   -796.72258            0   -796.72258     13791.09 
     560 5.9307835e-05   -796.72258            0   -796.72258    13791.095 
     561 6.1098546e-05   -796.72258            0   -796.72258    13791.099 
     562 5.7721405e-05   -796.72258            0   -796.72258    13791.103 
     563 2.0602097e-05   -796.72258            0   -796.72258    13791.105 
     564 1.4035991e-07   -796.72258            0   -796.72258    13791.105 
     565 2.7143534e-07   -796.72258            0   -796.72258    13791.106 
     566 5.0309949e-07   -796.72258            0   -796.72258    13791.106 
     567 8.6082492e-07   -796.72258            0   -796.72258    13791.106 
     568 1.2788668e-06   -796.72258            0   -796.72258    13791.107 
     569 1.6981976e-06   -796.72258            0   -796.72258    13791.108 
     570 2.1435016e-06   -796.72258            0   -796.72258    13791.108 
     571 2.6340151e-06   -796.72258            0   -796.72258    13791.109 
     572 3.1722485e-06   -796.72258            0   -796.72258     13791.11 
     573 3.7573768e-06   -796.72258            0   -796.72258    13791.111 
     574 4.3882963e-06   -796.72258            0   -796.72258    13791.112 
     575 5.0638056e-06   -796.72258            0   -796.72258    13791.114 
     576 5.7826084e-06   -796.72258            0   -796.72258    13791.115 
     577 6.5433145e-06   -796.72258            0   -796.72258    13791.116 
     578 7.3444411e-06   -796.72258            0   -796.72258    13791.118 
     579 8.1844152e-06   -796.72258            0   -796.72258    13791.119 
     580 9.0615745e-06   -796.72258            0   -796.72258    13791.121 
     581 9.9741694e-06   -796.72258            0   -796.72258    13791.123 
     582 1.0920365e-05   -796.72258            0   -796.72258    13791.125 
     583 1.1898244e-05   -796.72258            0   -796.72258    13791.127 
     584 1.2905807e-05   -796.72258            0   -796.72258    13791.129 
     585 1.3940975e-05   -796.72258            0   -796.72258    13791.131 
     586 1.5001595e-05   -796.72258            0   -796.72258    13791.133 
     587 1.6085435e-05   -796.72258            0   -796.72258    13791.135 
     588 1.7190196e-05   -796.72258            0   -796.72258    13791.137 
     589 1.8313508e-05   -796.72258            0   -796.72258     13791.14 
     590 1.9452932e-05   -796.72258            0   -796.72258    13791.142 
     591 2.0605969e-05   -796.72258            0   -796.72258    13791.145 
     592 2.1770056e-05   -796.72258            0   -796.72258    13791.147 
     593 2.2942573e-05   -796.72258            0   -796.72258     13791.15 
     594 2.4120843e-05   -796.72258            0   -796.72258    13791.153 
     595 2.5302142e-05   -796.72258            0   -796.72258    13791.156 
     596 2.6483682e-05   -796.72258            0   -796.72258    13791.158 
     597 2.7662647e-05   -796.72258            0   -796.72258    13791.161 
     598 2.8835879e-05   -796.72258            0   -796.72258    13791.164 
     599 2.9998308e-05   -796.72258            0   -796.72258    13791.167 
     600 3.1115693e-05   -796.72258            0   -796.72258    13791.171 
     601 3.1775971e-05   -796.72258            0   -796.72258    13791.174 
     602 2.6804412e-05   -796.72258            0   -796.72258    13791.177 
     603 3.7347575e-06   -796.72258            0   -796.72258    13791.177 
     604 4.0294471e-07   -796.72258            0   -796.72258    13791.177 
     605 6.4082378e-07   -796.72258            0   -796.72258    13791.178 
     606 8.7446511e-07   -796.72258            0   -796.72258    13791.178 
     607 1.1120167e-06   -796.72258            0   -796.72258    13791.179 
     608 1.3721494e-06   -796.72258            0   -796.72258    13791.179 
     609 1.6579374e-06   -796.72258            0   -796.72258     13791.18 
     610 1.9689989e-06   -796.72258            0   -796.72258    13791.181 
     611 2.3047097e-06   -796.72258            0   -796.72258    13791.182 
     612 2.6643872e-06   -796.72258            0   -796.72258    13791.183 
     613 3.047294e-06   -796.72258            0   -796.72258    13791.184 
     614 3.4526387e-06   -796.72258            0   -796.72258    13791.185 
     615 3.8795775e-06   -796.72258            0   -796.72258    13791.186 
     616 4.3272144e-06   -796.72258            0   -796.72258    13791.187 
     617 4.7946029e-06   -796.72258            0   -796.72258    13791.188 
     618 5.280747e-06   -796.72258            0   -796.72258    13791.189 
     619 5.7846024e-06   -796.72258            0   -796.72258     13791.19 
     620 6.3050776e-06   -796.72258            0   -796.72258    13791.192 
     621 6.8410358e-06   -796.72258            0   -796.72258    13791.193 
     622 7.3912956e-06   -796.72258            0   -796.72258    13791.195 
     623 7.9546332e-06   -796.72258            0   -796.72258    13791.196 
     624 8.5297836e-06   -796.72258            0   -796.72258    13791.198 
     625 9.115442e-06   -796.72258            0   -796.72258    13791.199 
     626 9.7102661e-06   -796.72258            0   -796.72258    13791.201 
     627 1.0312877e-05   -796.72258            0   -796.72258    13791.203 
     628 1.0921863e-05   -796.72258            0   -796.72258    13791.205 
     629 1.1535778e-05   -796.72258            0   -796.72258    13791.207 
     630 1.2153147e-05   -796.72258            0   -796.72258    13791.208 
     631 1.2772464e-05   -796.72258            0   -796.72258     13791.21 
     632 1.3392202e-05   -796.72258            0   -796.72258    13791.212 
     633 1.4010788e-05   -796.72258            0   -796.72258    13791.214 
     634 1.4626599e-05   -796.72258            0   -796.72258    13791.216 
     635 1.5237089e-05   -796.72258            0   -796.72258    13791.219 
     636 1.5830674e-05   -796.72258            0   -796.72258    13791.221 
     637 1.6270263e-05   -796.72258            0   -796.72258    13791.223 
     638 1.4830111e-05   -796.72258            0   -796.72258    13791.225 
     639 3.8320654e-06   -796.72258            0   -796.72258    13791.226 
     640 4.2067893e-08   -796.72258            0   -796.72258    13791.226 
     641 8.2498107e-08   -796.72258            0   -796.72258    13791.226 
     642 1.5151226e-07   -796.72258            0   -796.72258    13791.226 
     643 2.5072288e-07   -796.72258            0   -796.72258    13791.226 
     644 3.6269136e-07   -796.72258            0   -796.72258    13791.227 
     645 4.7977229e-07   -796.72258            0   -796.72258    13791.227 
     646 6.0787045e-07   -796.72258            0   -796.72258    13791.227 
     647 7.4988171e-07   -796.72258            0   -796.72258    13791.228 
     648 9.0593713e-07   -796.72258            0   -796.72258    13791.228 
     649 1.0757173e-06   -796.72258            0   -796.72258    13791.229 
     650 1.2588558e-06   -796.72258            0   -796.72258     13791.23 
     651 1.4549546e-06   -796.72258            0   -796.72258     13791.23 
     652 1.6635841e-06   -796.72258            0   -796.72258    13791.231 
     653 1.8842838e-06   -796.72258            0   -796.72258    13791.232 
     654 2.1165629e-06   -796.72258            0   -796.72258    13791.232 
     655 2.3599007e-06   -796.72258            0   -796.72258    13791.233 
     656 2.6137478e-06   -796.72258            0   -796.72258    13791.234 
     657 2.8775265e-06   -796.72258            0   -796.72258    13791.235 
     658 3.1506318e-06   -796.72258            0   -796.72258    13791.236 
     659 3.4324321e-06   -796.72258            0   -796.72258    13791.237 
     660 3.7222703e-06   -796.72258            0   -796.72258    13791.238 
     661 4.0194647e-06   -796.72258            0   -796.72258    13791.239 
     662 4.3233098e-06   -796.72258            0   -796.72258     13791.24 
     663 4.6330777e-06   -796.72258            0   -796.72258    13791.241 
     664 4.9480188e-06   -796.72258            0   -796.72258    13791.242 
     665 5.2673632e-06   -796.72258            0   -796.72258    13791.244 
     666 5.5903219e-06   -796.72258            0   -796.72258    13791.245 
     667 5.9160876e-06   -796.72258            0   -796.72258    13791.246 
     668 6.2438369e-06   -796.72258            0   -796.72258    13791.247 
     669 6.5727297e-06   -796.72258            0   -796.72258    13791.249 
     670 6.9019148e-06   -796.72258            0   -796.72258     13791.25 
     671 7.2305211e-06   -796.72258            0   -796.72258    13791.252 
     672 7.5576838e-06   -796.72258            0   -796.72258    13791.253 
     673 7.8824738e-06   -796.72258            0   -796.72258    13791.255 
     674 8.2040075e-06   -796.72258            0   -796.72258    13791.256 
     675 8.5199776e-06   -796.72258            0   -796.72258    13791.258 
     676 8.8148024e-06   -796.72258            0   -796.72258    13791.259 
     677 8.8524378e-06   -796.72258            0   -796.72258    13791.261 
     678 5.9616901e-06   -796.72258            0   -796.72258     13791.26 
     679 1.8114049e-07   -796.72258            0   -796.72258    13791.262 
     680 3.7536079e-07   -796.72258            0   -796.72258    13791.262 
     681 4.5763204e-07   -796.72258            0   -796.72258    13791.263 
     682 5.4658583e-07   -796.72258            0   -796.72258    13791.263 
     683 6.4275015e-07   -796.72258            0   -796.72258    13791.264 
     684 7.4592349e-07   -796.72258            0   -796.72258    13791.264 
     685 8.5586648e-07   -796.72258            0   -796.72258    13791.265 
     686 9.7232096e-07   -796.72258            0   -796.72258    13791.265 
     687 1.0950114e-06   -796.72258            0   -796.72258    13791.266 
     688 1.2236454e-06   -796.72258            0   -796.72258    13791.266 
     689 1.3579143e-06   -796.72258            0   -796.72258    13791.267 
     690 1.4974932e-06   -796.72258            0   -796.72258    13791.267 
     691 1.642042e-06   -796.72258            0   -796.72258    13791.268 
     692 1.7912057e-06   -796.72258            0   -796.72258    13791.269 
     693 1.944615e-06   -796.72258            0   -796.72258     13791.27 
     694 2.101887e-06   -796.72258            0   -796.72258     13791.27 
     695 2.2626259e-06   -796.72258            0   -796.72258    13791.271 
     696 2.4264231e-06   -796.72258            0   -796.72258    13791.272 
     697 2.5928589e-06   -796.72258            0   -796.72258    13791.273 
     698 2.7615021e-06   -796.72258            0   -796.72258    13791.274 
     699 2.9319106e-06   -796.72258            0   -796.72258    13791.274 
     700 3.103626e-06   -796.72258            0   -796.72258    13791.275 
     701 3.2761396e-06   -796.72258            0   -796.72258    13791.276 
     702 3.4486017e-06   -796.72258            0   -796.72258    13791.277 
     703 3.6174427e-06   -796.72258            0   -796.72258    13791.278 
     704 3.7541867e-06   -796.72258            0   -796.72258    13791.279 
     705 3.6019652e-06   -796.72258            0   -796.72258    13791.281 
     706 1.818494e-06   -796.72258            0   -796.72258     13791.28 
     707 1.0246964e-07   -796.72258            0   -796.72258    13791.281 
     708  1.87475e-07   -796.72258            0   -796.72258    13791.281 
     709 2.393411e-07   -796.72258            0   -796.72258    13791.282 
     710 2.9088645e-07   -796.72258            0   -796.72258    13791.282 
     711 3.4711112e-07   -796.72258            0   -796.72258    13791.282 
     712 4.0786188e-07   -796.72258            0   -796.72258    13791.282 
     713 4.7299174e-07   -796.72258            0   -796.72258    13791.283 
     714 5.4234173e-07   -796.72258            0   -796.72258    13791.283 
     715 6.1574138e-07   -796.72258            0   -796.72258    13791.284 
     716 6.9300894e-07   -796.72258            0   -796.72258    13791.284 
     717 7.7395176e-07   -796.72258            0   -796.72258    13791.284 
     718 8.5836654e-07   -796.72258            0   -796.72258    13791.285 
     719 9.4603976e-07   -796.72258            0   -796.72258    13791.285 
     720 1.036748e-06   -796.72258            0   -796.72258    13791.286 
     721 1.1302584e-06   -796.72258            0   -796.72258    13791.287 
     722 1.2263292e-06   -796.72258            0   -796.72258    13791.287 
     723 1.3247096e-06   -796.72258            0   -796.72258    13791.288 
     724 1.4251412e-06   -796.72258            0   -796.72258    13791.288 
     725 1.5273577e-06   -796.72258            0   -796.72258    13791.289 
     726 1.6310855e-06   -796.72258            0   -796.72258     13791.29 
     727 1.7360448e-06   -796.72258            0   -796.72258     13791.29 
     728 1.8419489e-06   -796.72258            0   -796.72258    13791.291 
     729 1.9485066e-06   -796.72258            0   -796.72258    13791.292 
     730 2.0554162e-06   -796.72258            0   -796.72258    13791.292 
     731 2.1623557e-06   -796.72258            0   -796.72258    13791.293 
     732 2.2687849e-06   -796.72258            0   -796.72258    13791.294 
     733 2.372315e-06   -796.72258            0   -796.72258    13791.295 
     734 2.4504571e-06   -796.72258            0   -796.72258    13791.296 
     735 2.275225e-06   -796.72258            0   -796.72258    13791.296 
     736 8.2426274e-07   -796.72258            0   -796.72258    13791.297 
     737 2.4943075e-08   -796.72258            0   -796.72258    13791.297 
     738 4.7348039e-08   -796.72258            0   -796.72258    13791.297 
     739 7.5518079e-08   -796.72258            0   -796.72258    13791.297 
     740 1.0125329e-07   -796.72258            0   -796.72258    13791.297 
     741 1.2787766e-07   -796.72258            0   -796.72258    13791.297 
     742 1.5726012e-07   -796.72258            0   -796.72258    13791.298 
     743 1.894713e-07   -796.72258            0   -796.72258    13791.298 
     744 2.2443102e-07   -796.72258            0   -796.72258    13791.298 
     745 2.620509e-07   -796.72258            0   -796.72258    13791.298 
     746 3.0223519e-07   -796.72258            0   -796.72258    13791.299 
     747 3.4488082e-07   -796.72258            0   -796.72258    13791.299 
     748 3.8987767e-07   -796.72258            0   -796.72258    13791.299 
     749 4.3710872e-07   -796.72258            0   -796.72258      13791.3 
     750 4.8645032e-07   -796.72258            0   -796.72258      13791.3 
     751 5.3777242e-07   -796.72258            0   -796.72258      13791.3 
     752 5.9093879e-07   -796.72258            0   -796.72258    13791.301 
     753 6.4580734e-07   -796.72258            0   -796.72258    13791.301 
     754 7.0223035e-07   -796.72258            0   -796.72258    13791.302 
     755 7.6005482e-07   -796.72258            0   -796.72258    13791.302 
     756 8.1912272e-07   -796.72258            0   -796.72258    13791.302 
     757 8.7927137e-07   -796.72258            0   -796.72258    13791.303 
     758 9.4033375e-07   -796.72258            0   -796.72258    13791.303 
     759 1.0021389e-06   -796.72258            0   -796.72258    13791.304 
     760 1.0645121e-06   -796.72258            0   -796.72258    13791.305 
     761 1.1272755e-06   -796.72258            0   -796.72258    13791.305 
     762 1.1902481e-06   -796.72258            0   -796.72258    13791.306 
     763 1.2532469e-06   -796.72258            0   -796.72258    13791.306 
     764 1.3160812e-06   -796.72258            0   -796.72258    13791.307 
     765 1.3785264e-06   -796.72258            0   -796.72258    13791.307 
     766 1.4399706e-06   -796.72258            0   -796.72258    13791.308 
     767 1.4954526e-06   -796.72258            0   -796.72258    13791.309 
     768 1.4871062e-06   -796.72258            0   -796.72258    13791.309 
     769 9.1976198e-07   -796.72258            0   -796.72258     13791.31 
     770 3.5577005e-08   -796.72258            0   -796.72258     13791.31 
     771 7.1613465e-08   -796.72258            0   -796.72258     13791.31 
     772 8.9447063e-08   -796.72258            0   -796.72258     13791.31 
     773 1.0807876e-07   -796.72258            0   -796.72258     13791.31 
     774 1.2832633e-07   -796.72258            0   -796.72258     13791.31 
     775 1.5013316e-07   -796.72258            0   -796.72258    13791.311 
     776 1.7344129e-07   -796.72258            0   -796.72258    13791.311 
     777 1.9818832e-07   -796.72258            0   -796.72258    13791.311 
     778 2.243076e-07   -796.72258            0   -796.72258    13791.311 
     779 2.5172827e-07   -796.72258            0   -796.72258    13791.312 
     780 2.8037551e-07   -796.72258            0   -796.72258    13791.312 
     781 3.1017061e-07   -796.72258            0   -796.72258    13791.312 
     782 3.4103119e-07   -796.72258            0   -796.72258    13791.312 
     783 3.7287134e-07   -796.72258            0   -796.72258    13791.313 
     784 4.0560188e-07   -796.72258            0   -796.72258    13791.313 
     785 4.3913043e-07   -796.72258            0   -796.72258    13791.313 
     786 4.7336177e-07   -796.72258            0   -796.72258    13791.314 
     787 5.0819781e-07   -796.72258            0   -796.72258    13791.314 
     788 5.435382e-07   -796.72258            0   -796.72258    13791.314 
     789 5.7927925e-07   -796.72258            0   -796.72258    13791.315 
     790 6.1531421e-07   -796.72258            0   -796.72258    13791.315 
     791 6.5151483e-07   -796.72258            0   -796.72258    13791.316 
     792 6.8764024e-07   -796.72258            0   -796.72258    13791.316 
     793 7.2246195e-07   -796.72258            0   -796.72258    13791.317 
     794 7.4636343e-07   -796.72258            0   -796.72258    13791.317 
     795 6.7858888e-07   -796.72258            0   -796.72258    13791.317 
     796 2.4744674e-07   -796.72258            0   -796.72258    13791.318 
     797 1.7450461e-08   -796.72258            0   -796.72258    13791.318 
     798 3.0949357e-08   -796.72258            0   -796.72258    13791.318 
     799 4.1636595e-08   -796.72258            0   -796.72258    13791.318 
     800 5.2029199e-08   -796.72258            0   -796.72258    13791.318 
     801 6.3458584e-08   -796.72258            0   -796.72258    13791.318 
     802 7.5931405e-08   -796.72258            0   -796.72258    13791.318 
     803 8.9413715e-08   -796.72258            0   -796.72258    13791.318 
     804 1.0386859e-07   -796.72258            0   -796.72258    13791.319 
     805 1.192562e-07   -796.72258            0   -796.72258    13791.319 
     806 1.3553384e-07   -796.72258            0   -796.72258    13791.319 
     807 1.5265605e-07   -796.72258            0   -796.72258    13791.319 
     808 1.7057472e-07   -796.72258            0   -796.72258    13791.319 
     809 1.8923919e-07   -796.72258            0   -796.72258     13791.32 
     810 2.0859637e-07   -796.72258            0   -796.72258     13791.32 
     811 2.2859086e-07   -796.72258            0   -796.72258     13791.32 
     812 2.4916506e-07   -796.72258            0   -796.72258     13791.32 
     813 2.7025933e-07   -796.72258            0   -796.72258     13791.32 
     814 2.9181214e-07   -796.72258            0   -796.72258    13791.321 
     815 3.1376016e-07   -796.72258            0   -796.72258    13791.321 
     816 3.3603846e-07   -796.72258            0   -796.72258    13791.321 
     817 3.585807e-07   -796.72258            0   -796.72258    13791.322 
     818 3.8131912e-07   -796.72258            0   -796.72258    13791.322 
     819 4.0418499e-07   -796.72258            0   -796.72258    13791.322 
     820 4.2710743e-07   -796.72258            0   -796.72258    13791.323 
     821 4.5001144e-07   -796.72258            0   -796.72258    13791.323 
     822 4.7277352e-07   -796.72258            0   -796.72258    13791.323 
     823 4.9486229e-07   -796.72258            0   -796.72258    13791.324 
     824 5.1125508e-07   -796.72258            0   -796.72258    13791.324 
     825 4.7109424e-07   -796.72258            0   -796.72258    13791.324 
     826 1.5972375e-07   -796.72258            0   -796.72258    13791.325 
     827 4.9961537e-09   -796.72258            0   -796.72258    13791.325 
     828 9.5430461e-09   -796.72258            0   -796.72258    13791.325 
     829 1.5424088e-08   -796.72258            0   -796.72258    13791.325 
     830 2.0974165e-08   -796.72258            0   -796.72258    13791.325 
     831 2.676354e-08   -796.72258            0   -796.72258    13791.325 
     832 3.3178351e-08   -796.72258            0   -796.72258    13791.325 
     833 4.0232728e-08   -796.72258            0   -796.72258    13791.325 
     834 4.7907036e-08   -796.72258            0   -796.72258    13791.325 
     835 5.617966e-08   -796.72258            0   -796.72258    13791.325 
     836 6.502714e-08   -796.72258            0   -796.72258    13791.325 
     837 7.442422e-08   -796.72258            0   -796.72258    13791.326 
     838 8.4343907e-08   -796.72258            0   -796.72258    13791.326 
     839 9.4757533e-08   -796.72258            0   -796.72258    13791.326 
     840 1.0563483e-07   -796.72258            0   -796.72258    13791.326 
     841 1.1694399e-07   -796.72258            0   -796.72258    13791.326 
     842 1.2865177e-07   -796.72258            0   -796.72258    13791.326 
     843 1.4072353e-07   -796.72258            0   -796.72258    13791.327 
     844 1.5312336e-07   -796.72258            0   -796.72258    13791.327 
     845 1.6581414e-07   -796.72258            0   -796.72258    13791.327 
     846 1.7875766e-07   -796.72258            0   -796.72258    13791.327 
     847 1.919147e-07   -796.72258            0   -796.72258    13791.327 
     848 2.0524511e-07   -796.72258            0   -796.72258    13791.328 
     849 2.1870797e-07   -796.72258            0   -796.72258    13791.328 
     850 2.3226165e-07   -796.72258            0   -796.72258    13791.328 
     851 2.458639e-07   -796.72258            0   -796.72258    13791.328 
     852  2.59472e-07   -796.72258            0   -796.72258    13791.329 
     853 2.7304207e-07   -796.72258            0   -796.72258    13791.329 
     854 2.8652494e-07   -796.72258            0   -796.72258    13791.329 
     855 2.9981144e-07   -796.72258            0   -796.72258    13791.329 
     856 3.1214144e-07   -796.72258            0   -796.72258     13791.33 
     857 3.1483425e-07   -796.72258            0   -796.72258     13791.33 
     858 2.2504763e-07   -796.72258            0   -796.72258     13791.33 
     859 1.5694871e-08   -796.72258            0   -796.72258     13791.33 
     860 2.0369773e-08   -796.72258            0   -796.72258     13791.33 
     861 2.4620012e-08   -796.72258            0   -796.72258     13791.33 
     862 2.9238782e-08   -796.72258            0   -796.72258     13791.33 
     863 3.4209716e-08   -796.72258            0   -796.72258    13791.331 
     864 3.951817e-08   -796.72258            0   -796.72258    13791.331 
     865 4.5148519e-08   -796.72258            0   -796.72258    13791.331 
     866 5.1084088e-08   -796.72258            0   -796.72258    13791.331 
     867 5.7307212e-08   -796.72258            0   -796.72258    13791.331 
     868 6.3799255e-08   -796.72258            0   -796.72258    13791.331 
     869 7.0540683e-08   -796.72258            0   -796.72258    13791.331 
     870 7.7511086e-08   -796.72258            0   -796.72258    13791.331 
     871 8.4689266e-08   -796.72258            0   -796.72258    13791.332 
     872 9.2053235e-08   -796.72258            0   -796.72258    13791.332 
     873 9.9580359e-08   -796.72258            0   -796.72258    13791.332 
     874 1.0724721e-07   -796.72258            0   -796.72258    13791.332 
     875 1.1502974e-07   -796.72258            0   -796.72258    13791.332 
     876 1.2290169e-07   -796.72258            0   -796.72258    13791.332 
     877 1.3082994e-07   -796.72258            0   -796.72258    13791.333 
     878 1.387304e-07   -796.72258            0   -796.72258    13791.333 
     879 1.4617951e-07   -796.72258            0   -796.72258    13791.333 
     880 1.5006205e-07   -796.72258            0   -796.72258    13791.333 
     881 1.2881158e-07   -796.72258            0   -796.72258    13791.333 
     882 3.9343997e-08   -796.72258            0   -796.72258    13791.333 
     883 6.206784e-09   -796.72258            0   -796.72258    13791.333 
     884 9.4202519e-09   -796.72258            0   -796.72258    13791.333 
     885 1.1873383e-08   -796.72258            0   -796.72258    13791.334 
     886 1.4546353e-08   -796.72258            0   -796.72258    13791.334 
     887 1.746813e-08   -796.72258            0   -796.72258    13791.334 
     888 2.0629835e-08   -796.72258            0   -796.72258    13791.334 
     889 2.4022077e-08   -796.72258            0   -796.72258    13791.334 
     890 2.7634708e-08   -796.72258            0   -796.72258    13791.334 
     891 3.145686e-08   -796.72258            0   -796.72258    13791.334 
     892 3.5476969e-08   -796.72258            0   -796.72258    13791.334 
     893 3.9682807e-08   -796.72258            0   -796.72258    13791.334 
     894 4.4061512e-08   -796.72258            0   -796.72258    13791.334 
     895 4.8599625e-08   -796.72258            0   -796.72258    13791.334 
     896 5.3283126e-08   -796.72258            0   -796.72258    13791.334 
     897 5.809747e-08   -796.72258            0   -796.72258    13791.335 
     898 6.3027627e-08   -796.72258            0   -796.72258    13791.335 
     899 6.8058129e-08   -796.72258            0   -796.72258    13791.335 
     900 7.3173093e-08   -796.72258            0   -796.72258    13791.335 
     901 7.8356307e-08   -796.72258            0   -796.72258    13791.335 
     902 8.3591175e-08   -796.72258            0   -796.72258    13791.335 
     903 8.8860874e-08   -796.72258            0   -796.72258    13791.335 
     904 9.4147437e-08   -796.72258            0   -796.72258    13791.336 
     905 9.9428751e-08   -796.72258            0   -796.72258    13791.336 
     906 1.0464011e-07   -796.72258            0   -796.72258    13791.336 
     907 1.093476e-07   -796.72258            0   -796.72258    13791.336 
     908 1.0941237e-07   -796.72258            0   -796.72258    13791.336 
     909 7.4506916e-08   -796.72258            0   -796.72258    13791.336 
     910 6.7047557e-09   -796.72258            0   -796.72258    13791.336 
     911 8.2996562e-09   -796.72258            0   -796.72258    13791.336 
     912 1.0069335e-08   -796.72258            0   -796.72258    13791.336 
     913 1.1993869e-08   -796.72258            0   -796.72258    13791.337 
     914 1.4067448e-08   -796.72258            0   -796.72258    13791.337 
     915 1.6283765e-08   -796.72258            0   -796.72258    13791.337 
     916 1.8636041e-08   -796.72258            0   -796.72258    13791.337 
     917 2.1117039e-08   -796.72258            0   -796.72258    13791.337 
     918 2.3719085e-08   -796.72258            0   -796.72258    13791.337 
     919 2.6434093e-08   -796.72258            0   -796.72258    13791.337 
     920 2.9253579e-08   -796.72258            0   -796.72258    13791.337 
     921 3.2168695e-08   -796.72258            0   -796.72258    13791.337 
     922 3.5170243e-08   -796.72258            0   -796.72258    13791.337 
     923 3.8248712e-08   -796.72258            0   -796.72258    13791.337 
     924 4.1394292e-08   -796.72258            0   -796.72258    13791.337 
     925 4.4596918e-08   -796.72258            0   -796.72258    13791.338 
     926 4.7846276e-08   -796.72258            0   -796.72258    13791.338 
     927 5.1131871e-08   -796.72258            0   -796.72258    13791.338 
     928 5.4442971e-08   -796.72258            0   -796.72258    13791.338 
     929 5.7768733e-08   -796.72258            0   -796.72258    13791.338 
     930 6.1097372e-08   -796.72258            0   -796.72258    13791.338 
     931 6.4413002e-08   -796.72258            0   -796.72258    13791.338 
     932 6.7655604e-08   -796.72258            0   -796.72258    13791.338 
     933 7.0350873e-08   -796.72258            0   -796.72258    13791.338 
     934 6.7777037e-08   -796.72258            0   -796.72258    13791.339 
     935 3.3164272e-08   -796.72258            0   -796.72258    13791.339 
     936 1.3109627e-09   -796.72258            0   -796.72258    13791.339 
     937 2.5953939e-09   -796.72258            0   -796.72258    13791.339 
     938 3.656829e-09   -796.72258            0   -796.72258    13791.339 
     939 4.6036586e-09   -796.72258            0   -796.72258    13791.339 
     940 5.6458346e-09   -796.72258            0   -796.72258    13791.339 
     941 6.7851271e-09   -796.72258            0   -796.72258    13791.339 
     942 8.0180289e-09   -796.72258            0   -796.72258    13791.339 
     943 9.3407314e-09   -796.72258            0   -796.72258    13791.339 
     944 1.0749126e-08   -796.72258            0   -796.72258    13791.339 
     945 1.2238812e-08   -796.72258            0   -796.72258    13791.339 
     946 1.3805112e-08   -796.72258            0   -796.72258    13791.339 
     947 1.5443082e-08   -796.72258            0   -796.72258    13791.339 
     948 1.7147529e-08   -796.72258            0   -796.72258    13791.339 
     949 1.8913021e-08   -796.72258            0   -796.72258    13791.339 
     950 2.0733911e-08   -796.72258            0   -796.72258    13791.339 
     951 2.260434e-08   -796.72258            0   -796.72258    13791.339 
     952 2.4518272e-08   -796.72258            0   -796.72258     13791.34 
     953 2.6469491e-08   -796.72258            0   -796.72258     13791.34 
     954 2.8451642e-08   -796.72258            0   -796.72258     13791.34 
     955 3.045822e-08   -796.72258            0   -796.72258     13791.34 
     956 3.2482634e-08   -796.72258            0   -796.72258     13791.34 
     957 3.4518088e-08   -796.72258            0   -796.72258     13791.34 
     958 3.6557603e-08   -796.72258            0   -796.72258     13791.34 
     959 3.8591451e-08   -796.72258            0   -796.72258     13791.34 
     960 4.0591325e-08   -796.72258            0   -796.72258     13791.34 
     961 4.2335614e-08   -796.72258            0   -796.72258     13791.34 
     962 4.1714505e-08   -796.72258            0   -796.72258     13791.34 
     963 2.464381e-08   -796.72258            0   -796.72258    13791.341 
     964 1.4316405e-09   -796.72258            0   -796.72258    13791.341 
     965 2.6249381e-09   -796.72258            0   -796.72258    13791.341 
     966 3.2400356e-09   -796.72258            0   -796.72258    13791.341 
     967 3.9271706e-09   -796.72258            0   -796.72258    13791.341 
     968 4.6739029e-09   -796.72258            0   -796.72258    13791.341 
     969 5.4778647e-09   -796.72258            0   -796.72258    13791.341 
     970 6.3365205e-09   -796.72258            0   -796.72258    13791.341 
     971 7.2471546e-09   -796.72258            0   -796.72258    13791.341 
     972 8.2068696e-09   -796.72258            0   -796.72258    13791.341 
     973 9.2125983e-09   -796.72258            0   -796.72258    13791.341 
     974 1.0261111e-08   -796.72258            0   -796.72258    13791.341 
     975 1.1349026e-08   -796.72258            0   -796.72258    13791.341 
     976 1.2472817e-08   -796.72258            0   -796.72258    13791.341 
     977 1.3628831e-08   -796.72258            0   -796.72258    13791.341 
     978 1.4813285e-08   -796.72258            0   -796.72258    13791.341 
     979 1.6022296e-08   -796.72258            0   -796.72258    13791.341 
     980 1.7251866e-08   -796.72258            0   -796.72258    13791.341 
     981 1.849792e-08   -796.72258            0   -796.72258    13791.341 
     982 1.9756161e-08   -796.72258            0   -796.72258    13791.341 
     983 2.1021807e-08   -796.72258            0   -796.72258    13791.342 
     984 2.228581e-08   -796.72258            0   -796.72258    13791.342 
     985 2.3510345e-08   -796.72258            0   -796.72258    13791.342 
     986 2.440767e-08   -796.72258            0   -796.72258    13791.342 
     987 2.2678411e-08   -796.72258            0   -796.72258    13791.342 
     988 9.6082337e-09   -796.72258            0   -796.72258    13791.342 
     989 7.1102481e-10   -796.72258            0   -796.72258    13791.342 
     990 1.2708531e-09   -796.72258            0   -796.72258    13791.342 
     991 1.6634726e-09   -796.72258            0   -796.72258    13791.342 
     992 2.0667747e-09   -796.72258            0   -796.72258    13791.342 
     993 2.5104935e-09   -796.72258            0   -796.72258    13791.342 
     994 2.9931343e-09   -796.72258            0   -796.72258    13791.342 
     995 3.5131703e-09   -796.72258            0   -796.72258    13791.342 
     996 4.0689458e-09   -796.72258            0   -796.72258    13791.342 
     997 4.6586819e-09   -796.72258            0   -796.72258    13791.342 
     998 5.280481e-09   -796.72258            0   -796.72258    13791.342 
     999 5.932333e-09   -796.72258            0   -796.72258    13791.342 
    1000 6.6121213e-09   -796.72258            0   -796.72258    13791.342 
    1001 7.3176286e-09   -796.72258            0   -796.72258    13791.342 
    1002 8.0465443e-09   -796.72258            0   -796.72258    13791.342 
    1003 8.7964715e-09   -796.72258            0   -796.72258    13791.342 
    1004 9.5649333e-09   -796.72258            0   -796.72258    13791.342 
    1005 1.0349382e-08   -796.72258            0   -796.72258    13791.342 
    1006 1.1147205e-08   -796.72258            0   -796.72258    13791.342 
    1007 1.1955736e-08   -796.72258            0   -796.72258    13791.343 
    1008 1.2772258e-08   -796.72258            0   -796.72258    13791.343 
    1009 1.3594018e-08   -796.72258            0   -796.72258    13791.343 
    1010 1.4418212e-08   -796.72258            0   -796.72258    13791.343 
    1011 1.5241942e-08   -796.72258            0   -796.72258    13791.343 
    1012 1.6061436e-08   -796.72258            0   -796.72258    13791.343 
    1013 1.6865569e-08   -796.72258            0   -796.72258    13791.343 
    1014 1.7564877e-08   -796.72258            0   -796.72258    13791.343 
    1015 1.723884e-08   -796.72258            0   -796.72258    13791.343 
    1016 9.5928824e-09   -796.72258            0   -796.72258    13791.343 
    1017 3.9466314e-10   -796.72258            0   -796.72258    13791.343 
    1018 7.9324012e-10   -796.72258            0   -796.72258    13791.343 
    1019 1.0488476e-09   -796.72258            0   -796.72258    13791.343 
    1020 1.2983586e-09   -796.72258            0   -796.72258    13791.343 
    1021 1.5725292e-09   -796.72258            0   -796.72258    13791.343 
    1022 1.8702821e-09   -796.72258            0   -796.72258    13791.343 
[...]
    2250 7.1601103e-18   -796.72258            0   -796.72258    13791.347 
    2251 1.6426928e-17   -796.72258            0   -796.72258    13791.347 
    2252 8.8235363e-17   -796.72258            0   -796.72258    13791.347 
    2253 7.3908651e-16   -796.72258            0   -796.72258    13791.347 
    2254 7.2072356e-15   -796.72258            0   -796.72258    13791.347 
    2255 5.9123425e-14   -796.72258            0   -796.72258    13791.347 
    2256 4.9480954e-14   -796.72258            0   -796.72258    13791.347 
    2257 1.2814388e-15   -796.72258            0   -796.72258    13791.347 
    2258 2.828597e-17   -796.72258            0   -796.72258    13791.347 
    2259 4.9812874e-19   -796.72258            0   -796.72258    13791.347 
    2260 5.5437304e-19   -796.72258            0   -796.72258    13791.347 
    2261 6.499909e-19   -796.72258            0   -796.72258    13791.347 
    2262 7.5263939e-19   -796.72258            0   -796.72258    13791.347 
    2263 8.6318391e-19   -796.72258            0   -796.72258    13791.347 
    2264 9.7982863e-19   -796.72258            0   -796.72258    13791.347 
    2265 1.1044699e-18   -796.72258            0   -796.72258    13791.347 
    2266 1.2345685e-18   -796.72258            0   -796.72258    13791.347 
    2267 1.3725221e-18   -796.72258            0   -796.72258    13791.347 
    2268 1.5166179e-18   -796.72258            0   -796.72258    13791.347 
    2269 1.667385e-18   -796.72258            0   -796.72258    13791.347 
    2270 1.8238446e-18   -796.72258            0   -796.72258    13791.347 
    2271 1.9877392e-18   -796.72258            0   -796.72258    13791.347 
    2272 2.1547819e-18   -796.72258            0   -796.72258    13791.347 
    2273 2.3341372e-18   -796.72258            0   -796.72258    13791.347 
    2274 2.5070278e-18   -796.72258            0   -796.72258    13791.347 
    2275 2.711813e-18   -796.72258            0   -796.72258    13791.347 
    2276 2.8894471e-18   -796.72258            0   -796.72258    13791.347 
    2277 3.2193909e-18   -796.72258            0   -796.72258    13791.347 
    2278 3.7426371e-18   -796.72258            0   -796.72258    13791.347 
    2279 7.1714223e-18   -796.72258            0   -796.72258    13791.347 
    2280 2.8717492e-17   -796.72258            0   -796.72258    13791.347 
    2281 2.1811604e-16   -796.72258            0   -796.72258    13791.347 
    2282 1.9847089e-15   -796.72258            0   -796.72258    13791.347 
    2283 1.8258174e-14   -796.72258            0   -796.72258    13791.347 
    2284 5.1990292e-14   -796.72258            0   -796.72258    13791.347 
    2285 1.5872741e-15   -796.72258            0   -796.72258    13791.347 
    2286 1.5893662e-15   -796.72258            0   -796.72258    13791.347 
    2287 9.4929655e-16   -796.72258            0   -796.72258    13791.347 
    2288 2.7241041e-16   -796.72258            0   -796.72258    13791.347 
    2289 3.6701413e-17   -796.72258            0   -796.72258    13791.347 
    2290 2.3160091e-18   -796.72258            0   -796.72258    13791.347 
    2291 2.7852245e-19   -796.72258            0   -796.72258    13791.347 
    2292 2.8670391e-19   -796.72258            0   -796.72258    13791.347 
    2293 3.3810673e-19   -796.72258            0   -796.72258    13791.347 
    2294 3.9437267e-19   -796.72258            0   -796.72258    13791.347 
    2295 4.5498653e-19   -796.72258            0   -796.72258    13791.347 
    2296 5.1964481e-19   -796.72258            0   -796.72258    13791.347 
    2297 5.8813132e-19   -796.72258            0   -796.72258    13791.347 
    2298 6.6060126e-19   -796.72258            0   -796.72258    13791.347 
    2299 7.370636e-19   -796.72258            0   -796.72258    13791.347 
    2300 8.1721699e-19   -796.72258            0   -796.72258    13791.347 
    2301 9.0029834e-19   -796.72258            0   -796.72258    13791.347 
    2302 9.886737e-19   -796.72258            0   -796.72258    13791.347 
    2303 1.0789277e-18   -796.72258            0   -796.72258    13791.347 
    2304 1.1747264e-18   -796.72258            0   -796.72258    13791.347 
    2305 1.2709572e-18   -796.72258            0   -796.72258    13791.347 
    2306 1.3746134e-18   -796.72258            0   -796.72258    13791.347 
    2307 1.4766493e-18   -796.72258            0   -796.72258    13791.347 
    2308 1.5954437e-18   -796.72258            0   -796.72258    13791.347 
    2309 1.718272e-18   -796.72258            0   -796.72258    13791.347 
    2310 2.0001606e-18   -796.72258            0   -796.72258    13791.347 
    2311 2.839344e-18   -796.72258            0   -796.72258    13791.347 
    2312 8.5526609e-18   -796.72258            0   -796.72258    13791.347 
    2313 4.9309697e-17   -796.72258            0   -796.72258    13791.347 
    2314 4.0596612e-16   -796.72258            0   -796.72258    13791.347 
    2315 3.8456998e-15   -796.72258            0   -796.72258    13791.347 
    2316 4.1334091e-14   -796.72258            0   -796.72258    13791.347 
    2317 4.9444848e-13   -796.72258            0   -796.72258    13791.347 
    2318 6.0768744e-12   -796.72258            0   -796.72258    13791.347 
    2319 2.8411487e-11   -796.72258            0   -796.72258    13791.347 
    2320 1.829166e-13   -796.72258            0   -796.72258    13791.347 
    2321 3.741613e-13   -796.72258            0   -796.72258    13791.347 
    2322 5.5635915e-13   -796.72258            0   -796.72258    13791.347 
    2323 6.0755309e-13   -796.72258            0   -796.72258    13791.347 
    2324 4.228086e-13   -796.72258            0   -796.72258    13791.347 
    2325 1.5388475e-13   -796.72258            0   -796.72258    13791.347 
    2326 2.7520497e-14   -796.72258            0   -796.72258    13791.347 
    2327 2.3062384e-15   -796.72258            0   -796.72258    13791.347 
    2328 6.8787555e-17   -796.72258            0   -796.72258    13791.347 
    2329 4.9105841e-19   -796.72258            0   -796.72258    13791.347 
    2330 1.6873841e-19   -796.72258            0   -796.72258    13791.347 
    2331 1.9689775e-19   -796.72258            0   -796.72258    13791.347 
    2332 2.2824834e-19   -796.72258            0   -796.72258    13791.347 
    2333 2.6136664e-19   -796.72258            0   -796.72258    13791.347 
    2334 2.9692266e-19   -796.72258            0   -796.72258    13791.347 
    2335 3.3437494e-19   -796.72258            0   -796.72258    13791.347 
    2336 3.7393778e-19   -796.72258            0   -796.72258    13791.347 
    2337 4.1529734e-19   -796.72258            0   -796.72258    13791.347 
    2338 4.5909782e-19   -796.72258            0   -796.72258    13791.347 
    2339 5.046906e-19   -796.72258            0   -796.72258    13791.347 
    2340 5.5164749e-19   -796.72258            0   -796.72258    13791.347 
    2341 6.0117354e-19   -796.72258            0   -796.72258    13791.347 
    2342 6.5107401e-19   -796.72258            0   -796.72258    13791.347 
    2343 7.0533573e-19   -796.72258            0   -796.72258    13791.347 
    2344 7.5765837e-19   -796.72258            0   -796.72258    13791.347 
    2345 8.1917699e-19   -796.72258            0   -796.72258    13791.347 
    2346 8.7632086e-19   -796.72258            0   -796.72258    13791.347 
    2347 9.7667811e-19   -796.72258            0   -796.72258    13791.347 
    2348 1.1817337e-18   -796.72258            0   -796.72258    13791.347 
    2349 2.3210114e-18   -796.72258            0   -796.72258    13791.347 
    2350 9.8916798e-18   -796.72258            0   -796.72258    13791.347 
    2351 7.2665642e-17   -796.72258            0   -796.72258    13791.347 
    2352 6.5764187e-16   -796.72258            0   -796.72258    13791.347 
    2353 6.8102548e-15   -796.72258            0   -796.72258    13791.347 
    2354 7.9280657e-14   -796.72258            0   -796.72258    13791.347 
    2355 1.0323706e-12   -796.72258            0   -796.72258    13791.347 
    2356 1.4988143e-11   -796.72258            0   -796.72258    13791.347 
    2357 2.4123168e-10   -796.72258            0   -796.72258    13791.347 
    2358 4.0495198e-09   -796.72258            0   -796.72258    13791.347 
    2359 2.7427919e-08   -796.72258            0   -796.72258    13791.349 
    2360 1.9224119e-11   -796.72258            0   -796.72258    13791.349 
    2361 1.1761102e-10   -796.72258            0   -796.72258    13791.349 
    2362 2.8968596e-10   -796.72258            0   -796.72258    13791.348 
    2363 4.947672e-10   -796.72258            0   -796.72258    13791.348 
    2364 6.4823659e-10   -796.72258            0   -796.72258    13791.348 
    2365 6.1083712e-10   -796.72258            0   -796.72258    13791.348 
    2366 3.297831e-10   -796.72258            0   -796.72258    13791.347 
    2367 8.0609118e-11   -796.72258            0   -796.72258    13791.347 
    2368 8.6026814e-12   -796.72258            0   -796.72258    13791.347 
    2369 3.4346055e-13   -796.72258            0   -796.72258    13791.347 
    2370 2.6012363e-15   -796.72258            0   -796.72258    13791.347 
    2371 8.1513697e-18   -796.72258            0   -796.72258    13791.347 
    2372 1.8242659e-19   -796.72258            0   -796.72258    13791.347 
    2373 1.1197037e-19   -796.72258            0   -796.72258    13791.347 
    2374 1.2164368e-19   -796.72258            0   -796.72258    13791.347 
    2375 1.3782633e-19   -796.72258            0   -796.72258    13791.347 
    2376 1.5538138e-19   -796.72258            0   -796.72258    13791.347 
    2377 1.7421786e-19   -796.72258            0   -796.72258    13791.347 
    2378 1.9382668e-19   -796.72258            0   -796.72258    13791.347 
    2379 2.1463143e-19   -796.72258            0   -796.72258    13791.347 
    2380 2.3623559e-19   -796.72258            0   -796.72258    13791.347 
    2381 2.5907684e-19   -796.72258            0   -796.72258    13791.347 
    2382 2.8229725e-19   -796.72258            0   -796.72258    13791.347 
    2383 3.0686258e-19   -796.72258            0   -796.72258    13791.347 
    2384 3.3219932e-19   -796.72258            0   -796.72258    13791.347 
    2385 3.5989106e-19   -796.72258            0   -796.72258    13791.347 
    2386 3.9242572e-19   -796.72258            0   -796.72258    13791.347 
    2387 4.4510365e-19   -796.72258            0   -796.72258    13791.347 
    2388 5.9856376e-19   -796.72258            0   -796.72258    13791.347 
    2389 1.3279206e-18   -796.72258            0   -796.72258    13791.347 
    2390 5.7959366e-18   -796.72258            0   -796.72258    13791.347 
    2391 3.7420284e-17   -796.72258            0   -796.72258    13791.347 
    2392 2.9022402e-16   -796.72258            0   -796.72258    13791.347 
    2393 2.5539227e-15   -796.72258            0   -796.72258    13791.347 
    2394 2.5197535e-14   -796.72258            0   -796.72258    13791.347 
    2395 2.7752743e-13   -796.72258            0   -796.72258    13791.347 
    2396 3.398993e-12   -796.72258            0   -796.72258    13791.347 
    2397 4.525536e-11   -796.72258            0   -796.72258    13791.347 
    2398 4.8829105e-10   -796.72258            0   -796.72258    13791.347 
    2399 3.1771161e-10   -796.72258            0   -796.72258    13791.347 
    2400 3.7643031e-13   -796.72258            0   -796.72258    13791.347 
    2401 1.1949144e-15   -796.72258            0   -796.72258    13791.347 
    2402 3.549428e-17   -796.72258            0   -796.72258    13791.347 
    2403 3.0281249e-18   -796.72258            0   -796.72258    13791.347 
    2404 5.5789639e-19   -796.72258            0   -796.72258    13791.347 
    2405 2.1072314e-19   -796.72258            0   -796.72258    13791.347 
    2406 1.4182413e-19   -796.72258            0   -796.72258    13791.347 
    2407 1.2860243e-19   -796.72258            0   -796.72258    13791.347 
    2408 1.3248925e-19   -796.72258            0   -796.72258    13791.347 
    2409 1.4380455e-19   -796.72258            0   -796.72258    13791.347 
    2410 1.6267591e-19   -796.72258            0   -796.72258    13791.347 
    2411 1.9294361e-19   -796.72258            0   -796.72258    13791.347 
    2412 2.5099878e-19   -796.72258            0   -796.72258    13791.347 
    2413 3.8374884e-19   -796.72258            0   -796.72258    13791.347 
    2414 7.6053281e-19   -796.72258            0   -796.72258    13791.347 
    2415 2.006516e-18   -796.72258            0   -796.72258    13791.347 
    2416 6.8293541e-18   -796.72258            0   -796.72258    13791.347 
    2417 2.8080909e-17   -796.72258            0   -796.72258    13791.347 
    2418 1.3458636e-16   -796.72258            0   -796.72258    13791.347 
    2419 7.3780682e-16   -796.72258            0   -796.72258    13791.347 
    2420 4.5887923e-15   -796.72258            0   -796.72258    13791.347 
    2421 3.2157323e-14   -796.72258            0   -796.72258    13791.347 
    2422 2.5005444e-13   -796.72258            0   -796.72258    13791.347 
    2423 1.9478551e-12   -796.72258            0   -796.72258    13791.347 
    2424 7.0762563e-12   -796.72258            0   -796.72258    13791.347 
    2425 1.0994516e-12   -796.72258            0   -796.72258    13791.347 
    2426 2.9382851e-13   -796.72258            0   -796.72258    13791.347 
    2427 9.5625826e-15   -796.72258            0   -796.72258    13791.347 
    2428 1.7905566e-17   -796.72258            0   -796.72258    13791.347 
    2429 1.2621096e-19   -796.72258            0   -796.72258    13791.347 
    2430 3.6098844e-20   -796.72258            0   -796.72258    13791.347 
    2431 3.8106986e-20   -796.72258            0   -796.72258    13791.347 
    2432 4.3310908e-20   -796.72258            0   -796.72258    13791.347 
    2433 4.9170251e-20   -796.72258            0   -796.72258    13791.347 
    2434 5.5371367e-20   -796.72258            0   -796.72258    13791.347 
    2435 6.1833864e-20   -796.72258            0   -796.72258    13791.347 
    2436 6.8859607e-20   -796.72258            0   -796.72258    13791.347 
    2437 7.6058891e-20   -796.72258            0   -796.72258    13791.347 
    2438 8.3401495e-20   -796.72258            0   -796.72258    13791.347 
    2439 9.1514315e-20   -796.72258            0   -796.72258    13791.347 
    2440 9.9181814e-20   -796.72258            0   -796.72258    13791.347 
    2441 1.0827281e-19   -796.72258            0   -796.72258    13791.347 
    2442 1.163483e-19   -796.72258            0   -796.72258    13791.347 
    2443 1.2656867e-19   -796.72258            0   -796.72258    13791.347 
    2444 1.3567741e-19   -796.72258            0   -796.72258    13791.347 
    2445 1.5161886e-19   -796.72258            0   -796.72258    13791.347 
    2446 1.7784757e-19   -796.72258            0   -796.72258    13791.347 
    2447 2.932759e-19   -796.72258            0   -796.72258    13791.347 
    2448 8.8515037e-19   -796.72258            0   -796.72258    13791.347 
    2449 4.8683893e-18   -796.72258            0   -796.72258    13791.347 
    2450 3.4896136e-17   -796.72258            0   -796.72258    13791.347 
    2451 2.9286176e-16   -796.72258            0   -796.72258    13791.347 
    2452 2.7768481e-15   -796.72258            0   -796.72258    13791.347 
    2453 2.9273462e-14   -796.72258            0   -796.72258    13791.347 
    2454 3.0449071e-13   -796.72258            0   -796.72258    13791.347 
    2455 9.8005846e-13   -796.72258            0   -796.72258    13791.347 
    2456 2.3889741e-14   -796.72258            0   -796.72258    13791.347 
    2457 2.7460579e-14   -796.72258            0   -796.72258    13791.347 
    2458 2.0839794e-14   -796.72258            0   -796.72258    13791.347 
    2459 8.4404197e-15   -796.72258            0   -796.72258    13791.347 
    2460 1.6521482e-15   -796.72258            0   -796.72258    13791.347 
    2461 1.5227532e-16   -796.72258            0   -796.72258    13791.347 
    2462 5.3112903e-18   -796.72258            0   -796.72258    13791.347 
    2463 5.1949632e-20   -796.72258            0   -796.72258    13791.347 
    2464 1.5506151e-20   -796.72258            0   -796.72258    13791.347 
    2465 1.8187946e-20   -796.72258            0   -796.72258    13791.347 
    2466 2.1072173e-20   -796.72258            0   -796.72258    13791.347 
    2467 2.4173343e-20   -796.72258            0   -796.72258    13791.347 
    2468 2.7407326e-20   -796.72258            0   -796.72258    13791.347 
    2469 3.0962448e-20   -796.72258            0   -796.72258    13791.347 
    2470 3.4590356e-20   -796.72258            0   -796.72258    13791.347 
    2471 3.846846e-20   -796.72258            0   -796.72258    13791.347 
    2472 4.2446887e-20   -796.72258            0   -796.72258    13791.347 
    2473 4.6775243e-20   -796.72258            0   -796.72258    13791.347 
    2474 5.1067458e-20   -796.72258            0   -796.72258    13791.347 
    2475 5.5767514e-20   -796.72258            0   -796.72258    13791.347 
    2476 6.0369301e-20   -796.72258            0   -796.72258    13791.347 
    2477 6.5584322e-20   -796.72258            0   -796.72258    13791.347 
    2478 7.0574642e-20   -796.72258            0   -796.72258    13791.347 
    2479 7.7815676e-20   -796.72258            0   -796.72258    13791.347 
    2480 8.626838e-20   -796.72258            0   -796.72258    13791.347 
    2481 1.1514777e-19   -796.72258            0   -796.72258    13791.347 
    2482 2.1805963e-19   -796.72258            0   -796.72258    13791.347 
    2483 8.1770319e-19   -796.72258            0   -796.72258    13791.347 
    2484 4.5924096e-18   -796.72258            0   -796.72258    13791.347 
    2485 3.2263938e-17   -796.72258            0   -796.72258    13791.347 
    2486 2.5887134e-16   -796.72258            0   -796.72258    13791.347 
    2487 2.341853e-15   -796.72258            0   -796.72258    13791.347 
    2488 2.3717455e-14   -796.72258            0   -796.72258    13791.347 
    2489 2.6802751e-13   -796.72258            0   -796.72258    13791.347 
    2490 3.3546066e-12   -796.72258            0   -796.72258    13791.347 
    2491 4.3116863e-11   -796.72258            0   -796.72258    13791.347 
    2492 2.1639601e-10   -796.72258            0   -796.72258    13791.347 
    2493 9.7307456e-13   -796.72258            0   -796.72258    13791.347 
Loop time of 357.296 on 16 procs for 653 steps with 127 atoms

99.2% CPU use with 16 MPI tasks x no OpenMP threads

Minimization stats:
  Stopping criterion = energy tolerance
  Energy initial, next-to-last, final = 
        -796.722579047     -796.722579047     -796.722579047
  Force two-norm initial, final = 1.09545e-08 2.93076e-06
  Force max component initial, final = 1.54578e-09 8.55424e-07
  Final line search alpha, max atom move = 0 0
  Iterations, force evaluations = 653 653

MPI task timing breakdown:
Section |  min time  |  avg time  |  max time  |%varavg| %total
---------------------------------------------------------------
Pair    | 186.24     | 212.52     | 227.15     |  57.6 | 59.48
Neigh   | 0          | 0          | 0          |   0.0 |  0.00
Comm    | 0.060225   | 14.688     | 40.968     | 219.2 |  4.11
Output  | 0.11227    | 0.11342    | 0.11522    |   0.2 |  0.03
Modify  | 0.086902   | 0.088909   | 0.089697   |   0.3 |  0.02
Other   |            | 129.9      |            |       | 36.35

Nlocal:    7.9375 ave 8 max 7 min
Histogram: 1 0 0 0 0 0 0 0 0 15
Nghost:    819.812 ave 824 max 816 min
Histogram: 4 0 0 0 0 8 0 1 1 2
Neighs:    0 ave 0 max 0 min
Histogram: 16 0 0 0 0 0 0 0 0 0
FullNghs:  1599.25 ave 1623 max 1416 min
Histogram: 1 0 0 0 0 0 0 0 1 14

Total # of neighbors = 25588
Ave neighs/atom = 201.48
Neighbor list builds = 0
Dangerous builds = 0
Total wall time: 0:22:55
