LAMMPS (12 Dec 2018)
Processor partition = 2
Reading data file ...
  orthogonal box = (0 0 0) to (10.0025 12.3537 10.615)
  2 by 4 by 2 MPI processor grid
  reading atoms ...
  127 atoms
Reading potential file lammps-force.nnp with DATE: 20201105
Neighbor list info ...
  update every 1 steps, delay 0 steps, check yes
  max neighbors/atom: 2000, page size: 100000
  master list distance cutoff = 8
  ghost atom cutoff = 8
  binsize = 4, bins = 3 4 3
  1 neighbor lists, perpetual/occasional/extra = 1 0 0
  (1) pair nnp3v, perpetual
      attributes: full, newton on
      pair build: full/bin/atomonly
      stencil: full/bin/3d
      bin: standard
Setting up quickmin style minimization ...
  Unit style    : metal
  Current step  : 0
Per MPI rank memory allocation (min/avg/max) = 2.736 | 2.736 | 2.736 Mbytes
Step Temp E_pair E_mol TotEng Press 
       0            0   -796.68047            0   -796.68047     13401.66 
       6  0.092325754   -796.68154            0   -796.68004    13408.421 
Loop time of 1.91941 on 16 procs for 6 steps with 127 atoms

98.1% CPU use with 16 MPI tasks x no OpenMP threads

Minimization stats:
  Stopping criterion = energy tolerance
  Energy initial, next-to-last, final = 
        -796.680469343     -796.681189813     -796.681544239
  Force two-norm initial, final = 0.292034 0.283352
  Force max component initial, final = 0.0445202 0.0435203
  Final line search alpha, max atom move = 0 0
  Iterations, force evaluations = 6 6

MPI task timing breakdown:
Section |  min time  |  avg time  |  max time  |%varavg| %total
---------------------------------------------------------------
Pair    | 1.5913     | 1.8218     | 1.9172     |   5.2 | 94.92
Neigh   | 0          | 0          | 0          |   0.0 |  0.00
Comm    | 0.0016828  | 0.097014   | 0.32755    |  22.6 |  5.05
Output  | 0          | 0          | 0          |   0.0 |  0.00
Modify  | 0          | 0          | 0          |   0.0 |  0.00
Other   |            | 0.0005524  |            |       |  0.03

Nlocal:    7.9375 ave 8 max 7 min
Histogram: 1 0 0 0 0 0 0 0 0 15
Nghost:    819.812 ave 824 max 816 min
Histogram: 4 0 0 0 0 8 0 1 1 2
Neighs:    0 ave 0 max 0 min
Histogram: 16 0 0 0 0 0 0 0 0 0
FullNghs:  1602 ave 1623 max 1420 min
Histogram: 1 0 0 0 0 0 0 0 1 14

Total # of neighbors = 25632
Ave neighs/atom = 201.827
Neighbor list builds = 0
Dangerous builds = 0
Setting up quickmin style minimization ...
  Unit style    : metal
  Current step  : 0
Per MPI rank memory allocation (min/avg/max) = 4.736 | 4.737 | 4.737 Mbytes
Step Temp E_pair E_mol TotEng Press 
       0            0   -795.40979            0   -795.40979     15266.26 
       1     1.668566   -795.40979            0   -795.38262     15288.39 
       2    6.9445092   -795.46167            0   -795.34857     15346.86 
       3    16.249295   -795.55937            0   -795.29472    15457.992 
       4    29.327906   -795.68805            0    -795.2104    15631.111 
       5     44.66416   -795.82584            0    -795.0984    15838.562 
       6    58.708676   -795.95075            0   -794.99457    15971.705 
       7    65.788513   -796.04924            0   -794.97775    15853.411 
       8    62.503713   -796.11913            0   -795.10114    15445.969 
       9    57.599805   -796.16664            0   -795.22853    15058.714 
      10     52.40598    -796.1989            0   -795.34538    14845.345 
      11     46.99684   -796.22155            0   -795.45612    14730.451 
      12    39.570785   -796.23526            0   -795.59078    14531.794 
      13    2.3517103   -796.23878            0   -796.20048    14075.836 
      14    1.8754028   -796.24171            0   -796.21117    14088.808 
      15    1.6514719   -796.24451            0   -796.21761    14081.186 
      16      1.88076   -796.24742            0   -796.21679    14082.642 
      17    2.1376669   -796.25043            0   -796.21561    14083.749 
      18    2.4053426   -796.25352            0   -796.21434    14085.605 
      19    2.6861984   -796.25667            0   -796.21292    14087.609 
      20    2.9777883   -796.25986            0   -796.21136    14090.265 
      21    3.2804939   -796.26309            0   -796.20966     14093.13 
      22    3.5926069   -796.26632            0   -796.20781    14096.724 
      23    3.9133563   -796.26956            0   -796.20583    14100.287 
      24     4.241267   -796.27279            0   -796.20371    14105.026 
      25    4.5710086   -796.27599            0   -796.20154    14108.601 
      26    4.9002843   -796.27915            0   -796.19934    14115.833 
      27    5.1481505   -796.28219            0   -796.19835     14114.02 
      28    5.0121038   -796.28479            0   -796.20316    14128.782 
      29    2.4647154   -796.28623            0   -796.24609    14073.318 
      30   0.29369822   -796.28683            0   -796.28205    14051.521 
      31   0.25853159    -796.2874            0   -796.28319    14054.619 
      32   0.28489441   -796.28801            0   -796.28337    14056.044 
      33   0.33590685   -796.28867            0    -796.2832    14057.197 
      34   0.39198873   -796.28938            0     -796.283    14058.377 
      35   0.45182815   -796.29013            0   -796.28277    14059.635 
      36   0.51520713   -796.29093            0   -796.28254    14060.977 
      37   0.58192906   -796.29177            0   -796.28229    14062.407 
      38   0.65177767   -796.29264            0   -796.28202    14063.929 
      39   0.72452298   -796.29355            0   -796.28175    14065.537 
      40    0.7999201   -796.29449            0   -796.28146    14067.232 
      41   0.87771069   -796.29545            0   -796.28116    14069.021 
      42   0.95761918   -796.29644            0   -796.28085    14070.904 
      43     1.039357   -796.29745            0   -796.28053     14072.88 
      44    1.1226259   -796.29848            0    -796.2802    14074.946 
      45    1.2071112   -796.29953            0   -796.27987    14077.103 
      46    1.2924915   -796.30058            0   -796.27953    14079.347 
      47    1.3784333   -796.30165            0    -796.2792    14081.672 
      48    1.4645975   -796.30272            0   -796.27886    14084.074 
      49    1.5506359   -796.30379            0   -796.27853    14086.552 
      50    1.6362051   -796.30486            0   -796.27821    14089.103 
      51    1.7209332   -796.30592            0    -796.2779    14091.717 
      52    1.8044964   -796.30698            0   -796.27759    14094.389 
      53    1.8864375   -796.30804            0   -796.27731    14097.112 
      54    1.9666815   -796.30908            0   -796.27704    14099.898 
      55    2.0440251    -796.3101            0   -796.27681     14102.69 
      56    2.1201719   -796.31111            0   -796.27658     14105.58 
      57    2.1763927    -796.3121            0   -796.27665    14108.136 
      58    2.0598087    -796.3129            0   -796.27935    14108.399 
      59   0.37750842   -796.31319            0   -796.30705    14086.751 
      60  0.033097232    -796.3133            0   -796.31276    14082.142 
      61  0.038217544   -796.31341            0   -796.31279    14082.378 
      62  0.045791334   -796.31354            0   -796.31279    14082.747 
      63  0.054822554   -796.31368            0   -796.31278    14083.172 
      64  0.064722767   -796.31383            0   -796.31277    14083.628 
      65  0.075367287   -796.31399            0   -796.31276    14084.113 
      66  0.086714446   -796.31416            0   -796.31275     14084.63 
      67  0.098729645   -796.31435            0   -796.31274    14085.179 
      68   0.11137844   -796.31455            0   -796.31273    14085.761 
      69   0.12462478   -796.31475            0   -796.31272    14086.375 
      70   0.13843065   -796.31497            0   -796.31272    14087.019 
      71   0.15275627    -796.3152            0   -796.31271    14087.695 
      72   0.16756065   -796.31543            0    -796.3127      14088.4 
      73   0.18280117   -796.31568            0    -796.3127    14089.135 
      74   0.19843375   -796.31593            0    -796.3127    14089.897 
      75    0.2144131   -796.31619            0    -796.3127    14090.685 
      76   0.23069285   -796.31646            0    -796.3127    14091.498 
      77   0.24722588   -796.31673            0   -796.31271    14092.334 
      78   0.26396395   -796.31702            0   -796.31272    14093.191 
      79   0.28085854    -796.3173            0   -796.31273    14094.069 
      80   0.29786111    -796.3176            0   -796.31274    14094.964 
      81   0.31492134   -796.31789            0   -796.31277    14095.875 
      82    0.3319893    -796.3182            0   -796.31279      14096.8 
      83   0.34901485    -796.3185            0   -796.31282    14097.737 
      84   0.36594865   -796.31882            0   -796.31286    14098.685 
      85   0.38273974   -796.31913            0    -796.3129    14099.638 
      86   0.39934356   -796.31945            0   -796.31294    14100.599 
      87   0.41569916   -796.31977            0     -796.313    14101.558 
      88   0.43179617   -796.32009            0   -796.31306    14102.529 
      89   0.44741154   -796.32042            0   -796.31313    14103.457 
      90   0.46276178   -796.32074            0   -796.31321    14104.519 
      91   0.47025696   -796.32107            0   -796.31341    14104.923 
      92    0.4050318   -796.32134            0   -796.31474    14106.331 
      93  0.045621367   -796.32142            0   -796.32068    14100.268 
      94  0.018663989   -796.32148            0   -796.32117    14100.201 
      95  0.021319575   -796.32154            0    -796.3212    14100.371 
      96  0.024569616   -796.32161            0   -796.32121     14100.57 
      97  0.028016989   -796.32169            0   -796.32123     14100.78 
      98  0.031657141   -796.32177            0   -796.32125    14101.002 
      99  0.035480696   -796.32185            0   -796.32127    14101.236 
     100  0.039478992   -796.32194            0    -796.3213    14101.481 
     101  0.043642541   -796.32203            0   -796.32132    14101.737 
     102  0.047961683   -796.32213            0   -796.32135    14102.004 
     103  0.052426285   -796.32223            0   -796.32138     14102.28 
     104  0.057025968   -796.32234            0   -796.32141    14102.566 
     105  0.061749976   -796.32245            0   -796.32144     14102.86 
     106  0.066587382   -796.32256            0   -796.32148    14103.163 
     107  0.071526965   -796.32268            0   -796.32151    14103.474 
     108  0.076557367    -796.3228            0   -796.32155    14103.791 
     109  0.081666854   -796.32292            0   -796.32159    14104.112 
     110  0.086843764   -796.32305            0   -796.32164     14104.44 
     111   0.09207617   -796.32318            0   -796.32168    14104.773 
     112  0.097353047   -796.32332            0   -796.32173     14105.11 
     113   0.10266106   -796.32346            0   -796.32178    14105.449 
     114   0.10799162    -796.3236            0   -796.32184    14105.794 
     115   0.11332531   -796.32374            0   -796.32189    14106.135 
     116    0.1186706   -796.32388            0   -796.32195    14106.487 
     117   0.12396287   -796.32403            0   -796.32201    14106.802 
     118   0.12934342   -796.32418            0   -796.32207    14107.221 
     119   0.13432429   -796.32433            0   -796.32214    14107.317 
     120   0.14039294   -796.32448            0    -796.3222    14108.459 
     121   0.14137802   -796.32462            0   -796.32231    14106.231 
     122  0.078206999   -796.32468            0   -796.32341    14109.055 
     123  0.004098945    -796.3247            0   -796.32463     14107.35 
     124 0.0039488174   -796.32472            0   -796.32466    14106.831 
     125 0.0039919496   -796.32474            0   -796.32468    14106.597 
     126 0.0046747504   -796.32477            0   -796.32469    14106.557 
     127 0.0056531126    -796.3248            0   -796.32471    14106.598 
     128 0.0067465508   -796.32483            0   -796.32472    14106.664 
     129 0.0079288314   -796.32486            0   -796.32473    14106.737 
     130  0.009197968    -796.3249            0   -796.32475    14106.816 
     131  0.010551903   -796.32494            0   -796.32477    14106.899 
     132  0.011988012   -796.32498            0   -796.32479    14106.988 
     133  0.013503495   -796.32503            0   -796.32481    14107.082 
     134  0.015095397   -796.32507            0   -796.32483     14107.18 
     135  0.016760618   -796.32512            0   -796.32485    14107.283 
     136  0.018495916   -796.32518            0   -796.32487    14107.391 
     137  0.020297928   -796.32523            0    -796.3249    14107.503 
     138  0.022163163   -796.32529            0   -796.32493     14107.62 
     139  0.024088024   -796.32535            0   -796.32495     14107.74 
     140  0.026068813   -796.32541            0   -796.32498    14107.864 
     141  0.028101734   -796.32547            0   -796.32501     14107.99 
     142  0.030182883   -796.32554            0   -796.32505     14108.12 
     143  0.032308349    -796.3256            0   -796.32508    14108.254 
     144  0.034474127   -796.32567            0   -796.32511     14108.39 
     145  0.036676202   -796.32575            0   -796.32515    14108.528 
     146  0.038910437   -796.32582            0   -796.32518    14108.669 
     147  0.041172799   -796.32589            0   -796.32522    14108.813 
     148   0.04345908   -796.32597            0   -796.32526    14108.958 
     149  0.045765347   -796.32605            0    -796.3253    14109.105 
     150  0.048087098   -796.32613            0   -796.32534    14109.252 
     151  0.050421127   -796.32621            0   -796.32539    14109.401 
     152  0.052761169   -796.32629            0   -796.32543    14109.549 
     153  0.055109173   -796.32637            0   -796.32547    14109.703 
     154  0.057444602   -796.32645            0   -796.32552    14109.842 
     155  0.059817055   -796.32654            0   -796.32556    14110.032 
     156  0.062091468   -796.32662            0   -796.32561    14110.057 
     157  0.065180424   -796.32671            0   -796.32564    14110.648 
     158  0.071293598   -796.32678            0   -796.32562    14109.392 
     159  0.066840977   -796.32682            0   -796.32573    14112.153 
     160 0.0013882558   -796.32683            0    -796.3268    14110.904 
     161 0.0017355728   -796.32684            0   -796.32681    14110.491 
     162 0.0017669908   -796.32685            0   -796.32682    14110.119 
     163 0.0015987988   -796.32686            0   -796.32683    14109.869 
     164 0.0016300904   -796.32687            0   -796.32684    14109.757 
     165 0.0019223117   -796.32688            0   -796.32685    14109.733 
     166 0.0023302358    -796.3269            0   -796.32686    14109.748 
     167 0.0027883398   -796.32691            0   -796.32687    14109.776 
     168 0.0032853081   -796.32693            0   -796.32687    14109.807 
     169 0.0038200345   -796.32695            0   -796.32688    14109.841 
     170 0.0043917921   -796.32697            0    -796.3269    14109.877 
     171 0.0049996635   -796.32699            0   -796.32691    14109.915 
     172 0.0056426672   -796.32701            0   -796.32692    14109.956 
     173 0.0063197442   -796.32704            0   -796.32693    14109.998 
     174 0.0070297895   -796.32706            0   -796.32695    14110.043 
     175 0.0077716459   -796.32709            0   -796.32696    14110.089 
     176 0.0085441118   -796.32711            0   -796.32697    14110.138 
     177 0.0093459317   -796.32714            0   -796.32699    14110.189 
     178  0.010175812   -796.32717            0   -796.32701    14110.241 
     179  0.011032429    -796.3272            0   -796.32702    14110.295 
     180  0.011914398   -796.32723            0   -796.32704    14110.351 
     181  0.012820311   -796.32727            0   -796.32706    14110.409 
     182  0.013748728    -796.3273            0   -796.32708    14110.468 
     183  0.014698185   -796.32733            0   -796.32709    14110.529 
     184  0.015667194   -796.32737            0   -796.32711    14110.591 
     185  0.016654263    -796.3274            0   -796.32713    14110.653 
     186   0.01765784   -796.32744            0   -796.32715    14110.716 
     187    0.0186764   -796.32748            0   -796.32717    14110.781 
     188   0.01970836   -796.32751            0   -796.32719    14110.846 
     189  0.020752219   -796.32755            0   -796.32721    14110.912 
     190  0.021806346   -796.32759            0   -796.32723    14110.979 
     191  0.022869292   -796.32763            0   -796.32725    14111.046 
     192  0.023939438   -796.32766            0   -796.32727    14111.113 
     193  0.025014857    -796.3277            0   -796.32729    14111.181 
     194  0.026095987   -796.32774            0   -796.32731     14111.25 
     195  0.027167567   -796.32778            0   -796.32733    14111.316 
     196  0.028240071   -796.32781            0   -796.32735    14111.395 
     197  0.028766071   -796.32785            0   -796.32738    14111.407 
     198  0.024947368   -796.32788            0   -796.32747    14111.563 
     199 0.0031231282   -796.32788            0   -796.32783    14111.167 
     200 0.0017863967   -796.32789            0   -796.32786    14111.144 
     201 0.0018799846    -796.3279            0   -796.32787    14111.163 
     202 0.0021593442   -796.32791            0   -796.32787     14111.18 
     203 0.0024600158   -796.32792            0   -796.32788    14111.198 
     204 0.0027780491   -796.32793            0   -796.32788    14111.217 
     205 0.0031134736   -796.32794            0   -796.32789    14111.238 
     206 0.0034656265   -796.32795            0   -796.32789    14111.259 
     207 0.0038340911   -796.32796            0    -796.3279    14111.281 
     208 0.0042182874   -796.32797            0    -796.3279    14111.304 
     209 0.0046177082   -796.32798            0   -796.32791    14111.328 
     210 0.0050317515     -796.328            0   -796.32791    14111.353 
     211 0.0054598622   -796.32801            0   -796.32792    14111.379 
     212 0.0059013998   -796.32802            0   -796.32793    14111.405 
     213 0.0063557867   -796.32804            0   -796.32793    14111.433 
     214 0.0068223257   -796.32805            0   -796.32794     14111.46 
     215 0.0073004477   -796.32806            0   -796.32794    14111.489 
     216 0.0077893598   -796.32808            0   -796.32795    14111.518 
     217 0.0082886028   -796.32809            0   -796.32795    14111.547 
     218 0.0087970971    -796.3281            0   -796.32796    14111.576 
     219 0.0093149094   -796.32812            0   -796.32796    14111.608 
     220   0.00983974   -796.32813            0   -796.32797    14111.635 
     221  0.010374327   -796.32814            0   -796.32797    14111.673 
     222   0.01090946   -796.32815            0   -796.32798    14111.686 
     223  0.011462824   -796.32817            0   -796.32798    14111.762 
     224  0.011967964   -796.32818            0   -796.32798    14111.669 
     225  0.012461433   -796.32819            0   -796.32799    14112.041 
     226  0.011398745    -796.3282            0   -796.32801     14111.24 
     227 0.0036208951    -796.3282            0   -796.32814    14111.819 
     228 0.0010237972    -796.3282            0   -796.32819    14111.661 
     229 0.0010977572   -796.32821            0   -796.32819    14111.676 
     230 0.0012644332   -796.32821            0   -796.32819    14111.684 
     231 0.0014428429   -796.32821            0   -796.32819    14111.694 
     232 0.0016319469   -796.32822            0   -796.32819    14111.704 
     233 0.0018315982   -796.32822            0   -796.32819    14111.714 
     234 0.0020414945   -796.32822            0   -796.32819    14111.725 
     235 0.0022613767   -796.32823            0   -796.32819    14111.737 
     236 0.0024909439   -796.32823            0   -796.32819    14111.749 
     237 0.0027299011   -796.32823            0   -796.32819    14111.761 
     238 0.0029779275   -796.32824            0   -796.32819    14111.773 
     239 0.0032347031   -796.32824            0   -796.32819    14111.786 
     240 0.0034998847   -796.32824            0   -796.32819      14111.8 
     241 0.0037731335   -796.32825            0   -796.32818    14111.813 
     242 0.0040540833   -796.32825            0   -796.32818    14111.827 
     243 0.0043423839   -796.32825            0   -796.32818    14111.841 
     244 0.0046376433   -796.32825            0   -796.32818    14111.855 
     245 0.0049395135   -796.32826            0   -796.32817    14111.869 
     246 0.0052475297   -796.32826            0   -796.32817    14111.882 
     247 0.0055614095   -796.32826            0   -796.32817    14111.896 
     248 0.0058805184   -796.32826            0   -796.32816    14111.908 
     249 0.0062049713   -796.32826            0   -796.32816    14111.924 
     250 0.0065330156   -796.32826            0   -796.32815    14111.932 
     251 0.0068664646   -796.32826            0   -796.32815    14111.957 
     252 0.0071917709   -796.32826            0   -796.32814    14111.936 
     253 0.0074851647   -796.32826            0   -796.32813    14112.042 
     254 0.0073277987   -796.32825            0   -796.32813    14111.784 
     255 0.0047490045   -796.32825            0   -796.32817     14112.27 
     256 0.00055795206   -796.32825            0   -796.32824    14111.979 
     257 0.00049973114   -796.32825            0   -796.32824    14111.898 
     258 0.00055869104   -796.32825            0   -796.32824    14111.896 
     259 0.0006520353   -796.32825            0   -796.32824    14111.899 
     260 0.00075218096   -796.32825            0   -796.32824    14111.902 
     261 0.00085900388   -796.32825            0   -796.32823    14111.905 
     262 0.00097236383   -796.32824            0   -796.32823    14111.908 
     263 0.0010921224   -796.32824            0   -796.32822    14111.912 
     264 0.0012181309   -796.32824            0   -796.32822    14111.915 
     265 0.0013502336   -796.32824            0   -796.32822    14111.919 
     266  0.001488267   -796.32824            0   -796.32821    14111.923 
     267 0.0016320605   -796.32823            0   -796.32821    14111.926 
     268 0.0017814362   -796.32823            0    -796.3282     14111.93 
     269 0.0019362101   -796.32823            0    -796.3282    14111.934 
     270 0.0020961915   -796.32822            0   -796.32819    14111.937 
     271 0.0022611808   -796.32822            0   -796.32818    14111.941 
     272  0.002430978   -796.32821            0   -796.32817    14111.944 
     273  0.002605376   -796.32821            0   -796.32817    14111.948 
     274 0.0027841617    -796.3282            0   -796.32816    14111.951 
     275 0.0029671173    -796.3282            0   -796.32815    14111.954 
     276 0.0031540212   -796.32819            0   -796.32814    14111.957 
     277 0.0033446484   -796.32819            0   -796.32813    14111.959 
     278 0.0035387674   -796.32818            0   -796.32812    14111.961 
     279 0.0037361504   -796.32817            0   -796.32811    14111.963 
     280 0.0039365528   -796.32816            0    -796.3281    14111.965 
     281 0.0041397602   -796.32815            0   -796.32808    14111.966 
     282 0.0043454538   -796.32814            0   -796.32807    14111.966 
     283  0.004553488   -796.32813            0   -796.32806    14111.967 
     284 0.0047623578   -796.32812            0   -796.32804    14111.963 
     285 0.0049661327   -796.32811            0   -796.32803    14111.972 
     286   0.00508543   -796.32809            0   -796.32801    14111.938 
     287 0.0044116158   -796.32808            0   -796.32801    14112.017 
     288 0.0010488138   -796.32808            0   -796.32806    14111.845 
     289 9.7666585e-05   -796.32807            0   -796.32807    14111.861 
     290 0.00014605297   -796.32807            0   -796.32807    14111.878 
     291 0.00018812654   -796.32807            0   -796.32807    14111.885 
     292 0.00022990958   -796.32807            0   -796.32806    14111.886 
     293 0.00027532302   -796.32806            0   -796.32806    14111.885 
     294 0.00032467715   -796.32806            0   -796.32805    14111.884 
     295 0.00037790855   -796.32805            0   -796.32805    14111.883 
     296 0.00043495278   -796.32805            0   -796.32804    14111.882 
     297 0.00049574371   -796.32805            0   -796.32804    14111.881 
     298 0.00056021086   -796.32804            0   -796.32803    14111.879 
     299 0.00062827935   -796.32804            0   -796.32802    14111.878 
     300 0.00069986999   -796.32803            0   -796.32802    14111.876 
     301 0.00077489946   -796.32802            0   -796.32801    14111.874 
     302 0.00085328036   -796.32802            0     -796.328    14111.872 
     303 0.00093492143   -796.32801            0   -796.32799    14111.869 
     304 0.0010197276     -796.328            0   -796.32798    14111.867 
     305 0.0011076003   -796.32799            0   -796.32798    14111.864 
     306 0.0011984373   -796.32798            0   -796.32796    14111.861 
     307 0.0012921331   -796.32798            0   -796.32795    14111.857 
     308 0.0013885792   -796.32797            0   -796.32794    14111.853 
     309  0.001487664   -796.32796            0   -796.32793    14111.849 
     310  0.001589273   -796.32794            0   -796.32792    14111.845 
     311 0.0016932889   -796.32793            0   -796.32791     14111.84 
     312 0.0017995918   -796.32792            0   -796.32789    14111.834 
     313 0.0019080604   -796.32791            0   -796.32788    14111.828 
     314 0.0020185706    -796.3279            0   -796.32786    14111.822 
     315 0.0021309964   -796.32788            0   -796.32785    14111.815 
     316 0.0022452101   -796.32787            0   -796.32783    14111.808 
     317 0.0023610824   -796.32785            0   -796.32781      14111.8 
     318 0.0024784827   -796.32783            0   -796.32779    14111.792 
     319 0.0025972786   -796.32782            0   -796.32778    14111.783 
     320 0.0027173395    -796.3278            0   -796.32776    14111.773 
     321  0.002838525   -796.32778            0   -796.32773    14111.763 
     322 0.0029607068   -796.32776            0   -796.32771    14111.752 
     323 0.0030835694   -796.32774            0   -796.32769    14111.739 
     324 0.0032055115   -796.32772            0   -796.32767     14111.73 
     325 0.0033026073    -796.3277            0   -796.32764    14111.704 
     326 0.0030525359   -796.32768            0   -796.32763    14111.727 
     327 0.00081442379   -796.32766            0   -796.32765    14111.617 
     328 4.1317913e-06   -796.32766            0   -796.32766     14111.61 
     329 8.3204318e-06   -796.32766            0   -796.32766    14111.615 
     330 1.5259085e-05   -796.32766            0   -796.32766    14111.623 
     331 2.6230689e-05   -796.32766            0   -796.32766     14111.63 
     332 4.1281479e-05   -796.32766            0   -796.32766    14111.635 
     333 5.8272607e-05   -796.32765            0   -796.32765    14111.638 
     334 7.6022269e-05   -796.32765            0   -796.32765    14111.638 
     335 9.5177303e-05   -796.32765            0   -796.32765    14111.636 
     336 0.00011625959   -796.32764            0   -796.32764    14111.634 
     337 0.00013937292   -796.32764            0   -796.32764    14111.631 
     338 0.00016450347   -796.32763            0   -796.32763    14111.627 
     339 0.0001916239   -796.32763            0   -796.32762    14111.624 
     340 0.00022070455   -796.32762            0   -796.32762     14111.62 
     341 0.00025171363   -796.32761            0   -796.32761    14111.616 
     342 0.00028461712   -796.32761            0    -796.3276    14111.611 
     343 0.00031937896    -796.3276            0   -796.32759    14111.606 
     344 0.00035596089   -796.32759            0   -796.32759    14111.601 
     345 0.00039432247   -796.32758            0   -796.32758    14111.595 
     346 0.00043442137   -796.32757            0   -796.32757    14111.589 
     347 0.00047621324   -796.32756            0   -796.32756    14111.582 
     348 0.00051965189   -796.32755            0   -796.32755    14111.575 
     349 0.00056468933   -796.32754            0   -796.32753    14111.568 
     350 0.00061127578   -796.32753            0   -796.32752    14111.561 
     351 0.00065935973   -796.32752            0   -796.32751    14111.552 
     352 0.00070888808   -796.32751            0    -796.3275    14111.544 
     353 0.00075980621   -796.32749            0   -796.32748    14111.535 
     354 0.00081205796   -796.32748            0   -796.32747    14111.525 
     355 0.00086558578   -796.32747            0   -796.32745    14111.515 
     356 0.00092033081   -796.32745            0   -796.32744    14111.505 
     357 0.00097623281   -796.32744            0   -796.32742    14111.494 
     358 0.0010332304   -796.32742            0    -796.3274    14111.482 
     359 0.0010912612    -796.3274            0   -796.32738     14111.47 
     360  0.001150262   -796.32738            0   -796.32737    14111.457 
     361 0.0012101683   -796.32737            0   -796.32735    14111.444 
     362 0.0012709153   -796.32735            0   -796.32733     14111.43 
     363 0.0013324359   -796.32733            0    -796.3273    14111.416 
     364 0.0013946661   -796.32731            0   -796.32728    14111.401 
     365 0.0014575318   -796.32728            0   -796.32726    14111.385 
     366 0.0015209873   -796.32726            0   -796.32724    14111.368 
     367 0.0015849378   -796.32724            0   -796.32721     14111.35 
     368 0.0016497662   -796.32721            0   -796.32719    14111.336 
     369 0.0017183512   -796.32719            0   -796.32716    14111.302 
     370 0.0018073108   -796.32717            0   -796.32714    14111.346 
     371 0.00097595261   -796.32716            0   -796.32714    14111.222 
     372 2.1606916e-05   -796.32715            0   -796.32715    14111.224 
     373 2.7427197e-05   -796.32715            0   -796.32715    14111.239 
     374 3.0889885e-05   -796.32715            0   -796.32715    14111.249 
     375 3.4629143e-05   -796.32715            0   -796.32715    14111.254 
     376 4.1517098e-05   -796.32714            0   -796.32714    14111.254 
     377 5.1089302e-05   -796.32714            0   -796.32714    14111.251 
     378 6.2226051e-05   -796.32713            0   -796.32713    14111.248 
     379 7.451341e-05   -796.32713            0   -796.32713    14111.244 
     380 8.7873439e-05   -796.32712            0   -796.32712     14111.24 
     381 0.00010228749   -796.32712            0   -796.32712    14111.235 
     382 0.0001177403   -796.32711            0   -796.32711     14111.23 
     383 0.00013421559    -796.3271            0    -796.3271    14111.224 
     384 0.00015169595    -796.3271            0   -796.32709    14111.218 
     385 0.00017016288   -796.32709            0   -796.32708    14111.212 
     386 0.00018959676   -796.32708            0   -796.32708    14111.205 
     387 0.00020997694   -796.32707            0   -796.32707    14111.198 
     388 0.00023128169   -796.32706            0   -796.32706     14111.19 
     389 0.00025348829   -796.32705            0   -796.32704    14111.182 
     390 0.00027657303   -796.32704            0   -796.32703    14111.173 
     391 0.00030051125   -796.32703            0   -796.32702    14111.165 
     392 0.00032527733   -796.32701            0   -796.32701    14111.155 
     393 0.0003508448     -796.327            0     -796.327    14111.145 
     394 0.00037718629   -796.32699            0   -796.32698    14111.135 
     395 0.00040427362   -796.32697            0   -796.32697    14111.124 
     396 0.00043207779   -796.32696            0   -796.32695    14111.113 
     397 0.00046056905   -796.32695            0   -796.32694    14111.101 
     398 0.00048971694   -796.32693            0   -796.32692    14111.088 
     399 0.00051949027   -796.32691            0   -796.32691    14111.076 
     400 0.00054985722    -796.3269            0   -796.32689    14111.062 
     401 0.00058078535   -796.32688            0   -796.32687    14111.048 
     402 0.00061224162   -796.32686            0   -796.32685    14111.034 
     403 0.00064419246   -796.32684            0   -796.32683    14111.019 
     404 0.0006766038   -796.32682            0   -796.32681    14111.003 
     405 0.00070944122    -796.3268            0   -796.32679    14110.987 
     406 0.00074266967   -796.32678            0   -796.32677     14110.97 
     407 0.00077625331   -796.32676            0   -796.32675    14110.952 
     408 0.00081015653   -796.32674            0   -796.32672    14110.934 
     409 0.00084434547   -796.32671            0    -796.3267    14110.915 
     410 0.00087877524   -796.32669            0   -796.32668    14110.897 
     411 0.00091351595   -796.32667            0   -796.32665    14110.871 
     412 0.00094903137   -796.32664            0   -796.32663    14110.876 
     413 0.0009995075   -796.32662            0    -796.3266    14110.752 
     414 0.0010401205    -796.3266            0   -796.32658    14111.048 
     415 2.3443031e-05   -796.32659            0   -796.32659     14110.98 
     416 2.9746945e-05   -796.32659            0   -796.32659    14110.919 
     417 3.0705391e-05   -796.32659            0   -796.32659     14110.86 
     418 2.6031293e-05   -796.32659            0   -796.32659    14110.819 
     419 2.4769299e-05   -796.32658            0   -796.32658      14110.8 
     420 2.8950915e-05   -796.32658            0   -796.32658    14110.792 
     421 3.4883965e-05   -796.32657            0   -796.32657    14110.788 
     422 4.1478208e-05   -796.32657            0   -796.32657    14110.783 
     423 4.8625555e-05   -796.32656            0   -796.32656    14110.779 
     424 5.6315227e-05   -796.32656            0   -796.32656    14110.774 
     425  6.45394e-05   -796.32655            0   -796.32655    14110.768 
     426 7.3289645e-05   -796.32654            0   -796.32654    14110.762 
     427 8.2556947e-05   -796.32654            0   -796.32653    14110.756 
     428 9.233173e-05   -796.32653            0   -796.32653    14110.749 
     429 0.00010260387   -796.32652            0   -796.32652    14110.742 
     430 0.00011336269   -796.32651            0   -796.32651    14110.734 
     431  0.000124597    -796.3265            0    -796.3265    14110.726 
     432 0.00013629509   -796.32649            0   -796.32649    14110.718 
     433 0.00014844475   -796.32648            0   -796.32648    14110.709 
     434 0.00016103327   -796.32647            0   -796.32646    14110.699 
     435 0.00017404748   -796.32646            0   -796.32645     14110.69 
     436 0.00018747373   -796.32644            0   -796.32644    14110.679 
     437 0.00020129796   -796.32643            0   -796.32643    14110.669 
     438 0.00021550563   -796.32642            0   -796.32641    14110.657 
     439 0.00023008182    -796.3264            0    -796.3264    14110.646 
     440 0.0002450112   -796.32639            0   -796.32638    14110.634 
     441 0.00026027806   -796.32637            0   -796.32637    14110.621 
     442 0.00027586633   -796.32636            0   -796.32635    14110.608 
     443 0.00029175955   -796.32634            0   -796.32634    14110.595 
     444 0.00030794103   -796.32633            0   -796.32632    14110.581 
     445 0.0003243935   -796.32631            0    -796.3263    14110.566 
     446 0.00034110012   -796.32629            0   -796.32628    14110.551 
     447 0.00035804171   -796.32627            0   -796.32627    14110.536 
     448 0.0003752049   -796.32625            0   -796.32625    14110.519 
     449 0.00039255732   -796.32623            0   -796.32623    14110.503 
     450 0.00041013015   -796.32621            0   -796.32621    14110.485 
     451 0.00042776681   -796.32619            0   -796.32618    14110.473 
     452 0.00044641125   -796.32617            0   -796.32616    14110.434 
     453 0.00046879217   -796.32615            0   -796.32614    14110.491 
     454  0.000505789   -796.32613            0   -796.32612    14110.252 
     455  5.51052e-05   -796.32613            0   -796.32613    14110.342 
     456 3.3013863e-05   -796.32612            0   -796.32612    14110.397 
     457 2.1747311e-05   -796.32612            0   -796.32612    14110.401 
     458 2.5420884e-05   -796.32611            0   -796.32611    14110.397 
     459 2.9656041e-05   -796.32611            0   -796.32611    14110.392 
     460 3.4202402e-05    -796.3261            0    -796.3261    14110.387 
     461 3.9054986e-05    -796.3261            0    -796.3261    14110.382 
     462 4.4208939e-05   -796.32609            0   -796.32609    14110.376 
     463 4.9658993e-05   -796.32608            0   -796.32608     14110.37 
     464 5.5399595e-05   -796.32607            0   -796.32607    14110.363 
     465 6.1424861e-05   -796.32607            0   -796.32606    14110.356 
     466 6.7728609e-05   -796.32606            0   -796.32606    14110.349 
     467 7.4304349e-05   -796.32605            0   -796.32605    14110.341 
     468 8.1145304e-05   -796.32604            0   -796.32604    14110.333 
     469 8.8244402e-05   -796.32603            0   -796.32603    14110.324 
     470 9.5594296e-05   -796.32602            0   -796.32602    14110.315 
     471 0.00010318736   -796.32601            0     -796.326    14110.306 
     472 0.00011101571   -796.32599            0   -796.32599    14110.296 
     473 0.0001190712   -796.32598            0   -796.32598    14110.286 
     474 0.00012734545   -796.32597            0   -796.32597    14110.276 
     475 0.00013582977   -796.32596            0   -796.32596    14110.265 
     476 0.00014451538   -796.32594            0   -796.32594    14110.253 
     477 0.00015339302   -796.32593            0   -796.32593    14110.241 
     478 0.00016245377   -796.32592            0   -796.32591    14110.229 
     479 0.00017168715    -796.3259            0    -796.3259    14110.216 
     480 0.0001810859   -796.32588            0   -796.32588    14110.203 
     481 0.00019063354   -796.32587            0   -796.32587     14110.19 
     482 0.00020033814   -796.32585            0   -796.32585    14110.175 
     483 0.00021013275   -796.32584            0   -796.32583    14110.163 
     484 0.00022016075   -796.32582            0   -796.32581    14110.142 
     485 0.00022970287    -796.3258            0    -796.3258    14110.146 
     486 0.00023867949   -796.32578            0   -796.32578    14110.067 
     487 0.00019427717   -796.32577            0   -796.32577      14110.2 
     488 1.2444171e-05   -796.32577            0   -796.32577    14110.153 
     489 1.1420007e-05   -796.32576            0   -796.32576    14110.117 
     490 9.6757313e-06   -796.32576            0   -796.32576    14110.099 
     491 1.0811769e-05   -796.32576            0   -796.32576    14110.093 
     492 1.296459e-05   -796.32575            0   -796.32575    14110.089 
     493 1.5368727e-05   -796.32575            0   -796.32575    14110.085 
     494 1.797122e-05   -796.32574            0   -796.32574    14110.081 
     495 2.0767955e-05   -796.32574            0   -796.32574    14110.076 
     496 2.3756147e-05   -796.32573            0   -796.32573    14110.071 
     497 2.6932788e-05   -796.32573            0   -796.32573    14110.066 
     498 3.0294668e-05   -796.32572            0   -796.32572     14110.06 
     499 3.3838377e-05   -796.32571            0   -796.32571    14110.054 
     500 3.7560309e-05   -796.32571            0    -796.3257    14110.048 
     501 4.1456667e-05    -796.3257            0    -796.3257    14110.041 
     502 4.5523462e-05   -796.32569            0   -796.32569    14110.034 
     503 4.9756523e-05   -796.32568            0   -796.32568    14110.027 
     504 5.4151495e-05   -796.32567            0   -796.32567    14110.019 
     505 5.8703848e-05   -796.32566            0   -796.32566    14110.011 
     506 6.3408878e-05   -796.32565            0   -796.32565    14110.003 
     507 6.8261715e-05   -796.32564            0   -796.32564    14109.994 
     508 7.3257324e-05   -796.32563            0   -796.32563    14109.985 
     509 7.8390509e-05   -796.32562            0   -796.32562    14109.975 
     510 8.3655925e-05   -796.32561            0   -796.32561    14109.965 
     511 8.904807e-05    -796.3256            0   -796.32559    14109.955 
     512 9.4561314e-05   -796.32558            0   -796.32558    14109.944 
     513 0.00010018985   -796.32557            0   -796.32557    14109.933 
     514 0.00010592782   -796.32556            0   -796.32555    14109.922 
     515 0.00011176903   -796.32554            0   -796.32554     14109.91 
     516 0.00011770775   -796.32553            0   -796.32553    14109.897 
     517 0.00012373642   -796.32551            0   -796.32551    14109.885 
     518 0.00012985248    -796.3255            0    -796.3255    14109.872 
     519 0.00013603755   -796.32548            0   -796.32548    14109.859 
     520 0.00014232707   -796.32547            0   -796.32546    14109.844 
     521 0.00014860312   -796.32545            0   -796.32545    14109.834 
     522 0.00015574382   -796.32543            0   -796.32543    14109.802 
     523 0.00016692381   -796.32541            0   -796.32541    14109.853 
     524 0.00017864396    -796.3254            0    -796.3254    14109.683 
     525 4.2448977e-06    -796.3254            0    -796.3254    14109.706 
     526 5.4106981e-06    -796.3254            0    -796.3254    14109.733 
     527 5.5169248e-06    -796.3254            0    -796.3254    14109.759 
     528 4.7092155e-06    -796.3254            0    -796.3254    14109.775 
     529 4.6410122e-06   -796.32539            0   -796.32539     14109.78 
     530 5.5290664e-06   -796.32539            0   -796.32539    14109.779 
     531 6.740082e-06   -796.32539            0   -796.32539    14109.777 
     532 8.0860851e-06   -796.32538            0   -796.32538    14109.774 
     533 9.550092e-06   -796.32538            0   -796.32538     14109.77 
     534 1.1130943e-05   -796.32537            0   -796.32537    14109.766 
     535 1.2827126e-05   -796.32537            0   -796.32537    14109.762 
     536 1.4636939e-05   -796.32536            0   -796.32536    14109.758 
     537 1.6558565e-05   -796.32536            0   -796.32536    14109.753 
     538 1.8590063e-05   -796.32535            0   -796.32535    14109.748 
     539 2.0729377e-05   -796.32535            0   -796.32535    14109.743 
     540 2.2974329e-05   -796.32534            0   -796.32534    14109.737 
     541 2.5322632e-05   -796.32533            0   -796.32533    14109.731 
     542 2.7771882e-05   -796.32533            0   -796.32532    14109.725 
     543 3.0319566e-05   -796.32532            0   -796.32532    14109.718 
     544 3.2963062e-05   -796.32531            0   -796.32531    14109.711 
     545 3.5699644e-05    -796.3253            0    -796.3253    14109.704 
     546 3.8526479e-05   -796.32529            0   -796.32529    14109.696 
     547 4.1440638e-05   -796.32528            0   -796.32528    14109.688 
     548 4.443909e-05   -796.32527            0   -796.32527     14109.68 
     549 4.751871e-05   -796.32526            0   -796.32526    14109.672 
     550 5.0676275e-05   -796.32525            0   -796.32525    14109.663 
     551 5.3908488e-05   -796.32524            0   -796.32524    14109.654 
     552 5.7211929e-05   -796.32523            0   -796.32523    14109.644 
     553 6.0583171e-05   -796.32522            0   -796.32522    14109.635 
     554 6.4018518e-05   -796.32521            0   -796.32521    14109.624 
     555 6.7514696e-05   -796.32519            0   -796.32519    14109.614 
     556 7.1066941e-05   -796.32518            0   -796.32518    14109.603 
     557 7.4674631e-05   -796.32517            0   -796.32517    14109.592 
     558 7.8324199e-05   -796.32515            0   -796.32515    14109.581 
     559 8.2046841e-05   -796.32514            0   -796.32514    14109.568 
     560 8.5755078e-05   -796.32513            0   -796.32512    14109.561 
     561 9.026169e-05   -796.32511            0   -796.32511    14109.532 
     562 9.9150113e-05    -796.3251            0   -796.32509    14109.579 
     563 0.00010343861   -796.32509            0   -796.32509    14109.443 
     564 1.4509816e-06   -796.32509            0   -796.32509    14109.455 
     565 2.1978948e-06   -796.32509            0   -796.32509    14109.473 
     566 2.663594e-06   -796.32509            0   -796.32509    14109.491 
     567 2.6006975e-06   -796.32508            0   -796.32508    14109.506 
     568 2.4079323e-06   -796.32508            0   -796.32508    14109.514 
     569 2.6757198e-06   -796.32508            0   -796.32508    14109.516 
     570 3.2848054e-06   -796.32508            0   -796.32508    14109.515 
     571 4.0230762e-06   -796.32507            0   -796.32507    14109.512 
     572 4.8382276e-06   -796.32507            0   -796.32507    14109.509 
     573 5.7258218e-06   -796.32507            0   -796.32507    14109.506 
     574 6.6852109e-06   -796.32506            0   -796.32506    14109.503 
     575 7.7154599e-06   -796.32506            0   -796.32506    14109.499 
     576 8.8155352e-06   -796.32505            0   -796.32505    14109.496 
     577 9.9843308e-06   -796.32505            0   -796.32505    14109.492 
     578 1.1220666e-05   -796.32504            0   -796.32504    14109.487 
     579 1.2523285e-05   -796.32504            0   -796.32504    14109.483 
     580 1.3890864e-05   -796.32503            0   -796.32503    14109.478 
     581 1.5322002e-05   -796.32503            0   -796.32503    14109.472 
     582 1.6815234e-05   -796.32502            0   -796.32502    14109.467 
     583 1.8369023e-05   -796.32501            0   -796.32501    14109.461 
     584 1.9981766e-05     -796.325            0     -796.325    14109.455 
     585 2.1651794e-05     -796.325            0     -796.325    14109.449 
     586 2.3377373e-05   -796.32499            0   -796.32499    14109.442 
     587 2.5156708e-05   -796.32498            0   -796.32498    14109.436 
     588 2.698794e-05   -796.32497            0   -796.32497    14109.429 
     589 2.8869154e-05   -796.32496            0   -796.32496    14109.421 
     590 3.079837e-05   -796.32495            0   -796.32495    14109.414 
     591 3.2773566e-05   -796.32495            0   -796.32494    14109.406 
     592 3.4792637e-05   -796.32494            0   -796.32493    14109.398 
     593 3.6853488e-05   -796.32493            0   -796.32492    14109.389 
     594 3.895381e-05   -796.32491            0   -796.32491     14109.38 
     595 4.1091693e-05    -796.3249            0    -796.3249    14109.371 
     596 4.3263892e-05   -796.32489            0   -796.32489    14109.362 
     597 4.5471043e-05   -796.32488            0   -796.32488    14109.353 
     598 4.7701516e-05   -796.32487            0   -796.32487    14109.343 
     599 4.9988195e-05   -796.32486            0   -796.32486    14109.332 
     600 5.2255593e-05   -796.32484            0   -796.32484    14109.327 
     601 5.5494795e-05   -796.32483            0   -796.32483    14109.297 
     602 6.4149515e-05   -796.32482            0   -796.32482    14109.354 
     603 3.7837407e-05   -796.32482            0   -796.32481    14109.266 
     604 1.9591407e-06   -796.32481            0   -796.32481     14109.28 
     605 1.6620118e-06   -796.32481            0   -796.32481    14109.289 
     606 1.6544628e-06   -796.32481            0   -796.32481    14109.292 
     607 1.9911165e-06   -796.32481            0   -796.32481    14109.292 
     608 2.4439887e-06   -796.32481            0   -796.32481     14109.29 
     609 2.9476268e-06    -796.3248            0    -796.3248    14109.287 
     610 3.4966838e-06    -796.3248            0    -796.3248    14109.285 
     611 4.090821e-06    -796.3248            0    -796.3248    14109.282 
     612 4.7294605e-06   -796.32479            0   -796.32479    14109.279 
     613 5.4119593e-06   -796.32479            0   -796.32479    14109.276 
     614 6.1376293e-06   -796.32478            0   -796.32478    14109.272 
     615 6.9057346e-06   -796.32478            0   -796.32478    14109.268 
     616 7.7154933e-06   -796.32477            0   -796.32477    14109.264 
     617 8.5660777e-06   -796.32477            0   -796.32477     14109.26 
     618 9.4566153e-06   -796.32476            0   -796.32476    14109.256 
     619 1.0386189e-05   -796.32476            0   -796.32476    14109.251 
     620 1.1353839e-05   -796.32475            0   -796.32475    14109.246 
     621 1.2358562e-05   -796.32475            0   -796.32475    14109.241 
     622 1.3399314e-05   -796.32474            0   -796.32474    14109.236 
     623 1.447501e-05   -796.32473            0   -796.32473     14109.23 
     624 1.5584524e-05   -796.32473            0   -796.32473    14109.224 
     625 1.6726692e-05   -796.32472            0   -796.32472    14109.218 
     626 1.7900315e-05   -796.32471            0   -796.32471    14109.212 
     627 1.9104147e-05    -796.3247            0    -796.3247    14109.205 
     628 2.0336928e-05   -796.32469            0   -796.32469    14109.199 
     629 2.1597318e-05   -796.32469            0   -796.32468    14109.192 
     630 2.2884049e-05   -796.32468            0   -796.32468    14109.184 
     631 2.4195544e-05   -796.32467            0   -796.32467    14109.177 
     632 2.5530971e-05   -796.32466            0   -796.32466    14109.169 
     633 2.6887187e-05   -796.32465            0   -796.32465    14109.161 
     634 2.8268235e-05   -796.32464            0   -796.32464    14109.153 
     635 2.9656022e-05   -796.32463            0   -796.32463    14109.146 
     636 3.1126827e-05   -796.32462            0   -796.32462    14109.134 
     637 3.2671265e-05   -796.32461            0   -796.32461    14109.137 
     638 3.7589376e-05    -796.3246            0    -796.3246    14109.086 
     639 3.2286598e-05   -796.32459            0   -796.32459    14109.158 
     640 4.786473e-07   -796.32459            0   -796.32459    14109.149 
     641 7.2409651e-07   -796.32459            0   -796.32459    14109.139 
     642 8.672712e-07   -796.32459            0   -796.32459    14109.128 
     643 8.6339862e-07   -796.32459            0   -796.32459    14109.118 
     644 8.7562747e-07   -796.32459            0   -796.32459    14109.113 
     645 1.0337809e-06   -796.32458            0   -796.32458     14109.11 
     646 1.2844636e-06   -796.32458            0   -796.32458    14109.108 
     647 1.5775394e-06   -796.32458            0   -796.32458    14109.106 
     648 1.9015427e-06   -796.32458            0   -796.32458    14109.104 
     649 2.2549641e-06   -796.32457            0   -796.32457    14109.101 
     650 2.6373425e-06   -796.32457            0   -796.32457    14109.099 
     651 3.0482952e-06   -796.32457            0   -796.32457    14109.096 
     652 3.4874077e-06   -796.32456            0   -796.32456    14109.093 
     653 3.9542348e-06   -796.32456            0   -796.32456     14109.09 
     654 4.4483012e-06   -796.32456            0   -796.32456    14109.087 
     655 4.9691012e-06   -796.32455            0   -796.32455    14109.084 
     656 5.5161002e-06   -796.32455            0   -796.32455     14109.08 
     657 6.088734e-06   -796.32454            0   -796.32454    14109.076 
     658 6.6864104e-06   -796.32454            0   -796.32454    14109.072 
     659 7.3085088e-06   -796.32453            0   -796.32453    14109.068 
     660 7.9543815e-06   -796.32453            0   -796.32453    14109.064 
     661 8.6233537e-06   -796.32452            0   -796.32452    14109.059 
     662 9.3147244e-06   -796.32452            0   -796.32452    14109.054 
     663 1.0027767e-05   -796.32451            0   -796.32451    14109.049 
     664 1.0761729e-05    -796.3245            0    -796.3245    14109.044 
     665 1.1515836e-05    -796.3245            0    -796.3245    14109.039 
     666 1.2289286e-05   -796.32449            0   -796.32449    14109.033 
     667 1.3081259e-05   -796.32448            0   -796.32448    14109.027 
     668 1.3890904e-05   -796.32447            0   -796.32447    14109.021 
     669 1.4717369e-05   -796.32447            0   -796.32447    14109.015 
     670 1.5559729e-05   -796.32446            0   -796.32446    14109.009 
     671 1.6417182e-05   -796.32445            0   -796.32445    14109.002 
     672 1.7288478e-05   -796.32444            0   -796.32444    14108.996 
     673 1.8173719e-05   -796.32443            0   -796.32443    14108.989 
     674 1.9068301e-05   -796.32442            0   -796.32442    14108.982 
     675 1.9983738e-05   -796.32442            0   -796.32441    14108.973 
     676 2.0864563e-05   -796.32441            0   -796.32441    14108.969 
     677 2.1814368e-05    -796.3244            0    -796.3244     14108.95 
     678 2.0197131e-05   -796.32439            0   -796.32439    14108.981 
     679 2.1200079e-06   -796.32439            0   -796.32439    14108.961 
     680 1.3858487e-06   -796.32438            0   -796.32438     14108.95 
     681 1.1568269e-06   -796.32438            0   -796.32438    14108.948 
     682 1.3787771e-06   -796.32438            0   -796.32438    14108.946 
     683 1.6199008e-06   -796.32438            0   -796.32438    14108.944 
     684 1.8795574e-06   -796.32438            0   -796.32438    14108.942 
     685 2.1575444e-06   -796.32437            0   -796.32437     14108.94 
     686 2.4535585e-06   -796.32437            0   -796.32437    14108.937 
     687 2.767308e-06   -796.32437            0   -796.32437    14108.935 
     688 3.098464e-06   -796.32436            0   -796.32436    14108.932 
     689 3.4466911e-06   -796.32436            0   -796.32436    14108.929 
     690 3.811624e-06   -796.32435            0   -796.32435    14108.926 
     691 4.1928901e-06   -796.32435            0   -796.32435    14108.922 
     692 4.5900849e-06   -796.32435            0   -796.32435    14108.919 
     693 5.0028043e-06   -796.32434            0   -796.32434    14108.915 
     694 5.4305998e-06   -796.32434            0   -796.32434    14108.911 
     695 5.873049e-06   -796.32433            0   -796.32433    14108.907 
     696 6.329637e-06   -796.32433            0   -796.32433    14108.903 
     697 6.7999761e-06   -796.32432            0   -796.32432    14108.898 
     698 7.2833694e-06   -796.32431            0   -796.32431    14108.894 
     699 7.7797457e-06   -796.32431            0   -796.32431    14108.889 
     700 8.2875113e-06    -796.3243            0    -796.3243    14108.884 
     701 8.8087586e-06    -796.3243            0    -796.3243    14108.879 
     702 9.3354453e-06   -796.32429            0   -796.32429    14108.875 
     703 9.8851221e-06   -796.32428            0   -796.32428    14108.868 
     704 1.0377642e-05   -796.32427            0   -796.32427    14108.867 
     705 1.0808735e-05   -796.32427            0   -796.32427    14108.848 
     706 8.4529909e-06   -796.32426            0   -796.32426    14108.873 
     707 9.6652565e-07   -796.32426            0   -796.32426     14108.86 
     708 7.2392369e-07   -796.32426            0   -796.32426    14108.853 
     709 7.0723716e-07   -796.32426            0   -796.32426    14108.851 
     710 8.5242115e-07   -796.32426            0   -796.32426    14108.849 
     711 1.0153171e-06   -796.32425            0   -796.32425    14108.847 
     712 1.1918931e-06   -796.32425            0   -796.32425    14108.846 
     713 1.3820072e-06   -796.32425            0   -796.32425    14108.844 
     714 1.5854584e-06   -796.32425            0   -796.32425    14108.842 
     715 1.8020425e-06   -796.32424            0   -796.32424    14108.839 
     716 2.031536e-06   -796.32424            0   -796.32424    14108.837 
     717 2.2737043e-06   -796.32424            0   -796.32424    14108.834 
     718 2.5282961e-06   -796.32423            0   -796.32423    14108.832 
     719 2.7950487e-06   -796.32423            0   -796.32423    14108.829 
     720 3.0736837e-06   -796.32423            0   -796.32423    14108.826 
     721 3.363912e-06   -796.32422            0   -796.32422    14108.823 
     722 3.6654275e-06   -796.32422            0   -796.32422    14108.819 
     723 3.9779178e-06   -796.32421            0   -796.32421    14108.816 
     724 4.3010475e-06   -796.32421            0   -796.32421    14108.812 
     725 4.6344879e-06    -796.3242            0    -796.3242    14108.809 
     726 4.9778617e-06    -796.3242            0    -796.3242    14108.805 
     727 5.3308576e-06   -796.32419            0   -796.32419    14108.801 
     728 5.6929785e-06   -796.32419            0   -796.32419    14108.797 
     729 6.0641363e-06   -796.32418            0   -796.32418    14108.792 
     730 6.4431592e-06   -796.32418            0   -796.32418    14108.788 
     731 6.8317766e-06   -796.32417            0   -796.32417    14108.783 
     732 7.223401e-06   -796.32417            0   -796.32417    14108.779 
     733 7.6371687e-06   -796.32416            0   -796.32416    14108.773 
     734 8.0187611e-06   -796.32415            0   -796.32415    14108.773 
     735 8.604006e-06   -796.32415            0   -796.32415    14108.752 
     736 6.6271437e-06   -796.32414            0   -796.32414    14108.779 
     737 3.5112934e-07   -796.32414            0   -796.32414    14108.772 
     738 3.642337e-07   -796.32414            0   -796.32414    14108.765 
     739 3.3132735e-07   -796.32414            0   -796.32414     14108.76 
     740 3.6406146e-07   -796.32414            0   -796.32414    14108.758 
     741 4.4834395e-07   -796.32414            0   -796.32414    14108.757 
     742 5.4867661e-07   -796.32414            0   -796.32414    14108.756 
     743 6.5931959e-07   -796.32413            0   -796.32413    14108.754 
     744 7.7979494e-07   -796.32413            0   -796.32413    14108.753 
     745 9.0996924e-07   -796.32413            0   -796.32413    14108.751 
     746 1.0497127e-06   -796.32413            0   -796.32413    14108.749 
     747 1.1988826e-06   -796.32413            0   -796.32413    14108.747 
     748 1.3573267e-06   -796.32412            0   -796.32412    14108.745 
     749 1.5248821e-06   -796.32412            0   -796.32412    14108.743 
     750 1.7013764e-06   -796.32412            0   -796.32412    14108.741 
     751 1.8866266e-06   -796.32411            0   -796.32411    14108.739 
     752 2.0804408e-06   -796.32411            0   -796.32411    14108.736 
     753 2.2826168e-06   -796.32411            0   -796.32411    14108.733 
     754 2.4929439e-06    -796.3241            0    -796.3241    14108.731 
     755 2.7112011e-06    -796.3241            0    -796.3241    14108.728 
     756 2.9371603e-06    -796.3241            0    -796.3241    14108.725 
     757 3.1705818e-06   -796.32409            0   -796.32409    14108.721 
     758 3.4112226e-06   -796.32409            0   -796.32409    14108.718 
     759 3.6588209e-06   -796.32408            0   -796.32408    14108.715 
     760 3.9131308e-06   -796.32408            0   -796.32408    14108.711 
     761 4.1738412e-06   -796.32407            0   -796.32407    14108.708 
     762 4.4407789e-06   -796.32407            0   -796.32407    14108.704 
     763 4.7133734e-06   -796.32406            0   -796.32406      14108.7 
     764 4.9921614e-06   -796.32406            0   -796.32406    14108.696 
     765 5.2743401e-06   -796.32405            0   -796.32405    14108.692 
     766 5.5679755e-06   -796.32405            0   -796.32405    14108.687 
     767 5.8488358e-06   -796.32404            0   -796.32404    14108.685 
     768 6.2524012e-06   -796.32403            0   -796.32403    14108.671 
     769 6.2552943e-06   -796.32403            0   -796.32403    14108.693 
     770 8.2028238e-07   -796.32403            0   -796.32403     14108.68 
     771 4.6887261e-07   -796.32403            0   -796.32403    14108.673 
     772 3.7812623e-07   -796.32403            0   -796.32403    14108.672 
     773 4.5484021e-07   -796.32402            0   -796.32402    14108.671 
     774 5.3914453e-07   -796.32402            0   -796.32402     14108.67 
     775 6.302805e-07   -796.32402            0   -796.32402    14108.668 
     776 7.2821858e-07   -796.32402            0   -796.32402    14108.667 
     777 8.3283643e-07   -796.32402            0   -796.32402    14108.665 
     778 9.440391e-07   -796.32401            0   -796.32401    14108.663 
     779 1.0617045e-06   -796.32401            0   -796.32401    14108.662 
     780 1.1857184e-06   -796.32401            0   -796.32401     14108.66 
     781 1.3159459e-06   -796.32401            0   -796.32401    14108.658 
     782 1.4522597e-06     -796.324            0     -796.324    14108.655 
     783 1.5945085e-06     -796.324            0     -796.324    14108.653 
     784 1.7425579e-06     -796.324            0     -796.324    14108.651 
     785 1.8962312e-06   -796.32399            0   -796.32399    14108.648 
     786 2.0554056e-06   -796.32399            0   -796.32399    14108.646 
     787 2.2198425e-06   -796.32399            0   -796.32399    14108.643 
     788 2.3895132e-06   -796.32398            0   -796.32398     14108.64 
     789 2.5639257e-06   -796.32398            0   -796.32398    14108.637 
     790 2.7436214e-06   -796.32398            0   -796.32398    14108.634 
     791 2.9266233e-06   -796.32397            0   -796.32397    14108.631 
     792 3.1174982e-06   -796.32397            0   -796.32397    14108.627 
     793 3.3036454e-06   -796.32396            0   -796.32396    14108.625 
     794 3.5295586e-06   -796.32396            0   -796.32396    14108.618 
     795 3.7171828e-06   -796.32395            0   -796.32395    14108.626 
     796 3.0096841e-06   -796.32395            0   -796.32395    14108.604 
     797 2.9699084e-07   -796.32395            0   -796.32395     14108.61 
     798 2.2349105e-07   -796.32395            0   -796.32395    14108.613 
     799 2.124422e-07   -796.32395            0   -796.32395    14108.613 
     800 2.5965974e-07   -796.32395            0   -796.32395    14108.612 
     801 3.1556352e-07   -796.32395            0   -796.32395    14108.611 
     802 3.7668243e-07   -796.32394            0   -796.32394     14108.61 
     803 4.4302289e-07   -796.32394            0   -796.32394    14108.609 
     804 5.1450934e-07   -796.32394            0   -796.32394    14108.608 
     805 5.9107203e-07   -796.32394            0   -796.32394    14108.607 
     806 6.7263193e-07   -796.32394            0   -796.32394    14108.605 
     807 7.5910651e-07   -796.32393            0   -796.32393    14108.603 
     808 8.5040652e-07   -796.32393            0   -796.32393    14108.602 
     809 9.4643861e-07   -796.32393            0   -796.32393      14108.6 
     810 1.047103e-06   -796.32393            0   -796.32393    14108.598 
     811 1.1522963e-06   -796.32392            0   -796.32392    14108.596 
     812 1.2619083e-06   -796.32392            0   -796.32392    14108.594 
     813 1.3758265e-06   -796.32392            0   -796.32392    14108.592 
     814 1.4939292e-06   -796.32392            0   -796.32392     14108.59 
     815 1.6160984e-06   -796.32391            0   -796.32391    14108.587 
     816 1.7421954e-06   -796.32391            0   -796.32391    14108.585 
     817 1.8721106e-06   -796.32391            0   -796.32391    14108.582 
     818 2.0056552e-06    -796.3239            0    -796.3239    14108.579 
     819 2.1428164e-06    -796.3239            0    -796.3239    14108.577 
     820 2.2831174e-06   -796.32389            0   -796.32389    14108.574 
     821 2.4273322e-06   -796.32389            0   -796.32389    14108.571 
     822 2.572693e-06   -796.32389            0   -796.32389    14108.568 
     823 2.7278896e-06   -796.32388            0   -796.32388    14108.564 
     824 2.8736214e-06   -796.32388            0   -796.32388    14108.564 
     825 3.1538099e-06   -796.32387            0   -796.32387     14108.55 
     826 2.5047409e-06   -796.32387            0   -796.32387    14108.568 
     827 1.2972508e-07   -796.32387            0   -796.32387    14108.563 
     828 1.353918e-07   -796.32387            0   -796.32387    14108.559 
     829 1.2154829e-07   -796.32387            0   -796.32387    14108.556 
     830 1.3191641e-07   -796.32387            0   -796.32387    14108.555 
     831 1.6319833e-07   -796.32387            0   -796.32387    14108.554 
     832 2.0103614e-07   -796.32387            0   -796.32387    14108.553 
     833 2.4292298e-07   -796.32387            0   -796.32387    14108.552 
     834 2.886524e-07   -796.32386            0   -796.32386    14108.551 
     835 3.3817387e-07   -796.32386            0   -796.32386     14108.55 
     836 3.9143852e-07   -796.32386            0   -796.32386    14108.549 
     837 4.4839226e-07   -796.32386            0   -796.32386    14108.548 
     838 5.0897749e-07   -796.32386            0   -796.32386    14108.546 
     839 5.7313239e-07   -796.32386            0   -796.32386    14108.545 
     840 6.4079147e-07   -796.32385            0   -796.32385    14108.544 
     841 7.1188522e-07   -796.32385            0   -796.32385    14108.542 
     842 7.8634064e-07   -796.32385            0   -796.32385     14108.54 
     843 8.6408075e-07   -796.32385            0   -796.32385    14108.539 
     844 9.4502539e-07   -796.32384            0   -796.32384    14108.537 
     845 1.0290903e-06   -796.32384            0   -796.32384    14108.535 
     846 1.1161888e-06   -796.32384            0   -796.32384    14108.533 
     847 1.2062289e-06   -796.32384            0   -796.32384    14108.531 
     848 1.2991196e-06   -796.32383            0   -796.32383    14108.528 
     849 1.3947573e-06   -796.32383            0   -796.32383    14108.526 
     850 1.4930577e-06   -796.32383            0   -796.32383    14108.524 
     851 1.5938778e-06   -796.32382            0   -796.32382    14108.521 
     852 1.6972196e-06   -796.32382            0   -796.32382    14108.519 
     853 1.8026683e-06   -796.32382            0   -796.32382    14108.516 
     854 1.9110489e-06   -796.32381            0   -796.32381    14108.514 
     855 2.0194358e-06   -796.32381            0   -796.32381    14108.511 
     856 2.1390539e-06   -796.32381            0   -796.32381    14108.507 
     857 2.2550847e-06    -796.3238            0    -796.3238    14108.509 
     858 2.5185053e-06    -796.3238            0    -796.3238    14108.492 
     859 6.1226456e-07    -796.3238            0    -796.3238    14108.502 
     860 1.5161334e-07    -796.3238            0    -796.3238    14108.501 
     861 1.8258237e-07    -796.3238            0    -796.3238    14108.501 
     862 2.1635663e-07   -796.32379            0   -796.32379      14108.5 
     863 2.5295332e-07   -796.32379            0   -796.32379    14108.499 
     864 2.9225453e-07   -796.32379            0   -796.32379    14108.498 
     865 3.3425256e-07   -796.32379            0   -796.32379    14108.497 
     866 3.7888572e-07   -796.32379            0   -796.32379    14108.496 
     867 4.2612339e-07   -796.32379            0   -796.32379    14108.494 
     868 4.7590395e-07   -796.32378            0   -796.32378    14108.493 
     869 5.2819119e-07   -796.32378            0   -796.32378    14108.492 
     870 5.8291357e-07   -796.32378            0   -796.32378     14108.49 
     871 6.400398e-07   -796.32378            0   -796.32378    14108.489 
     872 6.9947293e-07   -796.32378            0   -796.32378    14108.487 
     873 7.6121598e-07   -796.32377            0   -796.32377    14108.485 
     874 8.2508704e-07   -796.32377            0   -796.32377    14108.484 
     875 8.9125471e-07   -796.32377            0   -796.32377    14108.482 
     876 9.591487e-07   -796.32377            0   -796.32377     14108.48 
     877 1.0298573e-06   -796.32376            0   -796.32376    14108.478 
     878 1.1005516e-06   -796.32376            0   -796.32376    14108.476 
     879 1.1790678e-06   -796.32376            0   -796.32376    14108.473 
     880 1.2502802e-06   -796.32376            0   -796.32376    14108.474 
     881 1.3794529e-06   -796.32375            0   -796.32375    14108.463 
     882 9.2947606e-07   -796.32375            0   -796.32375    14108.474 
     883 1.4353687e-07   -796.32375            0   -796.32375     14108.47 
     884 9.3067042e-08   -796.32375            0   -796.32375    14108.468 
     885 1.0458676e-07   -796.32375            0   -796.32375    14108.467 
     886 1.2739088e-07   -796.32375            0   -796.32375    14108.466 
     887 1.525415e-07   -796.32375            0   -796.32375    14108.466 
     888 1.7986987e-07   -796.32375            0   -796.32375    14108.465 
     889 2.0935888e-07   -796.32374            0   -796.32374    14108.464 
     890 2.409758e-07   -796.32374            0   -796.32374    14108.463 
     891 2.7469057e-07   -796.32374            0   -796.32374    14108.462 
     892 3.1046812e-07   -796.32374            0   -796.32374    14108.461 
     893 3.4827319e-07   -796.32374            0   -796.32374     14108.46 
     894 3.8806652e-07   -796.32374            0   -796.32374    14108.459 
     895 4.2980867e-07   -796.32374            0   -796.32374    14108.457 
     896 4.7345568e-07   -796.32373            0   -796.32373    14108.456 
     897 5.1896495e-07   -796.32373            0   -796.32373    14108.455 
     898 5.6628655e-07   -796.32373            0   -796.32373    14108.453 
     899 6.1537772e-07   -796.32373            0   -796.32373    14108.452 
     900 6.6617681e-07   -796.32373            0   -796.32373     14108.45 
     901 7.1865455e-07   -796.32372            0   -796.32372    14108.448 
     902 7.7270557e-07   -796.32372            0   -796.32372    14108.447 
     903 8.2839594e-07   -796.32372            0   -796.32372    14108.445 
     904 8.8536095e-07   -796.32372            0   -796.32372    14108.443 
     905 9.4438332e-07   -796.32371            0   -796.32371    14108.441 
     906 1.0031547e-06   -796.32371            0   -796.32371    14108.439 
     907 1.0699356e-06   -796.32371            0   -796.32371    14108.436 
     908 1.1345814e-06    -796.3237            0    -796.3237    14108.438 
     909 1.2545733e-06    -796.3237            0    -796.3237    14108.426 
     910 3.292043e-07    -796.3237            0    -796.3237    14108.433 
     911 8.7958949e-08    -796.3237            0    -796.3237    14108.432 
     912 1.0629424e-07    -796.3237            0    -796.3237    14108.432 
     913 1.2632208e-07    -796.3237            0    -796.3237    14108.431 
     914 1.4801102e-07    -796.3237            0    -796.3237     14108.43 
     915 1.7134214e-07    -796.3237            0    -796.3237    14108.429 
     916 1.9629112e-07    -796.3237            0    -796.3237    14108.429 
     917 2.2283367e-07   -796.32369            0   -796.32369    14108.428 
     918 2.5094264e-07   -796.32369            0   -796.32369    14108.427 
     919 2.8059017e-07   -796.32369            0   -796.32369    14108.426 
     920 3.117458e-07   -796.32369            0   -796.32369    14108.425 
     921 3.4437861e-07   -796.32369            0   -796.32369    14108.423 
     922 3.7845454e-07   -796.32369            0   -796.32369    14108.422 
     923 4.1394033e-07   -796.32368            0   -796.32368    14108.421 
     924 4.5079737e-07   -796.32368            0   -796.32368     14108.42 
     925 4.8899248e-07   -796.32368            0   -796.32368    14108.418 
     926 5.2847761e-07   -796.32368            0   -796.32368    14108.417 
     927 5.6923169e-07   -796.32368            0   -796.32368    14108.415 
     928 6.1116795e-07   -796.32367            0   -796.32367    14108.414 
     929 6.5435503e-07   -796.32367            0   -796.32367    14108.412 
     930 6.9845741e-07   -796.32367            0   -796.32367    14108.411 
     931 7.4427387e-07   -796.32367            0   -796.32367    14108.409 
     932 7.895617e-07   -796.32366            0   -796.32366    14108.407 
     933  8.44259e-07   -796.32366            0   -796.32366    14108.404 
     934 9.0760203e-07   -796.32366            0   -796.32366    14108.407 
     935 9.5840165e-07   -796.32366            0   -796.32366    14108.395 
     936 9.1800879e-08   -796.32366            0   -796.32366    14108.398 
     937 6.6495384e-08   -796.32366            0   -796.32366    14108.401 
     938 4.990469e-08   -796.32366            0   -796.32366    14108.401 
     939 5.9949669e-08   -796.32366            0   -796.32366    14108.401 
     940 7.3181996e-08   -796.32366            0   -796.32366      14108.4 
     941 8.767437e-08   -796.32365            0   -796.32365      14108.4 
     942 1.0343463e-07   -796.32365            0   -796.32365    14108.399 
     943 1.2044303e-07   -796.32365            0   -796.32365    14108.398 
     944 1.386842e-07   -796.32365            0   -796.32365    14108.398 
     945 1.5813929e-07   -796.32365            0   -796.32365    14108.397 
     946 1.7878944e-07   -796.32365            0   -796.32365    14108.396 
     947 2.0061354e-07   -796.32365            0   -796.32365    14108.395 
     948 2.2359019e-07   -796.32365            0   -796.32365    14108.394 
     949 2.4769569e-07   -796.32365            0   -796.32365    14108.393 
     950 2.7290652e-07   -796.32364            0   -796.32364    14108.392 
     951 2.9919603e-07   -796.32364            0   -796.32364    14108.391 
     952 3.2653951e-07   -796.32364            0   -796.32364     14108.39 
     953 3.549058e-07   -796.32364            0   -796.32364    14108.389 
     954 3.8427278e-07   -796.32364            0   -796.32364    14108.388 
     955 4.1459639e-07   -796.32364            0   -796.32364    14108.386 
     956 4.4587791e-07   -796.32363            0   -796.32363    14108.385 
     957 4.7800766e-07   -796.32363            0   -796.32363    14108.384 
     958 5.1115543e-07   -796.32363            0   -796.32363    14108.382 
     959 5.4474817e-07   -796.32363            0   -796.32363    14108.381 
     960 5.8047387e-07   -796.32363            0   -796.32363    14108.379 
     961 6.1465781e-07   -796.32362            0   -796.32362    14108.379 
     962 6.7478359e-07   -796.32362            0   -796.32362    14108.373 
     963 7.0817647e-07   -796.32362            0   -796.32362    14108.381 
     964 1.2335688e-07   -796.32362            0   -796.32362    14108.376 
     965 5.5525979e-08   -796.32362            0   -796.32362    14108.374 
     966 5.139472e-08   -796.32362            0   -796.32362    14108.374 
     967 6.2070289e-08   -796.32362            0   -796.32362    14108.373 
     968 7.369709e-08   -796.32362            0   -796.32362    14108.373 
     969 8.629228e-08   -796.32362            0   -796.32362    14108.372 
     970 9.9833483e-08   -796.32361            0   -796.32361    14108.372 
     971 1.1431189e-07   -796.32361            0   -796.32361    14108.371 
     972 1.2971027e-07   -796.32361            0   -796.32361     14108.37 
     973 1.460157e-07   -796.32361            0   -796.32361     14108.37 
     974 1.6320962e-07   -796.32361            0   -796.32361    14108.369 
     975 1.8127748e-07   -796.32361            0   -796.32361    14108.368 
     976 2.0019781e-07   -796.32361            0   -796.32361    14108.367 
     977 2.1995648e-07   -796.32361            0   -796.32361    14108.366 
     978 2.4052586e-07    -796.3236            0    -796.3236    14108.365 
     979 2.6189881e-07    -796.3236            0    -796.3236    14108.364 
     980 2.840278e-07    -796.3236            0    -796.3236    14108.363 
     981 3.0694411e-07    -796.3236            0    -796.3236    14108.362 
     982 3.3050583e-07    -796.3236            0    -796.3236    14108.361 
     983 3.5497432e-07    -796.3236            0    -796.3236     14108.36 
     984 3.7962767e-07    -796.3236            0    -796.3236    14108.358 
     985 4.0654604e-07   -796.32359            0   -796.32359    14108.357 
     986 4.3182103e-07   -796.32359            0   -796.32359    14108.357 
     987 4.8144698e-07   -796.32359            0   -796.32359    14108.351 
     988 4.2400581e-07   -796.32359            0   -796.32359    14108.358 
     989 5.5524193e-08   -796.32359            0   -796.32359    14108.355 
     990 3.5078598e-08   -796.32359            0   -796.32359    14108.353 
     991 3.2292674e-08   -796.32359            0   -796.32359    14108.353 
     992 3.9508809e-08   -796.32359            0   -796.32359    14108.352 
     993 4.779326e-08   -796.32359            0   -796.32359    14108.352 
     994 5.6839803e-08   -796.32359            0   -796.32359    14108.352 
     995 6.664184e-08   -796.32358            0   -796.32358    14108.351 
     996 7.7189251e-08   -796.32358            0   -796.32358    14108.351 
     997 8.8471963e-08   -796.32358            0   -796.32358     14108.35 
     998 1.0047871e-07   -796.32358            0   -796.32358    14108.349 
     999 1.1319777e-07   -796.32358            0   -796.32358    14108.349 
    1000 1.2661642e-07   -796.32358            0   -796.32358    14108.348 
    1001 1.4072146e-07   -796.32358            0   -796.32358    14108.347 
    1002 1.5549866e-07   -796.32358            0   -796.32358    14108.346 
    1003 1.7093353e-07   -796.32358            0   -796.32358    14108.346 
    1004 1.8701021e-07   -796.32358            0   -796.32358    14108.345 
    1005 2.0371332e-07   -796.32357            0   -796.32357    14108.344 
    1006 2.2102468e-07   -796.32357            0   -796.32357    14108.343 
    1007 2.3892981e-07   -796.32357            0   -796.32357    14108.342 
    1008 2.5740421e-07   -796.32357            0   -796.32357    14108.341 
    1009 2.7644464e-07   -796.32357            0   -796.32357     14108.34 
    1010 2.9599295e-07   -796.32357            0   -796.32357    14108.339 
    1011 3.1613532e-07   -796.32357            0   -796.32357    14108.338 
    1012 3.3655662e-07   -796.32356            0   -796.32356    14108.336 
    1013 3.5821136e-07   -796.32356            0   -796.32356    14108.335 
    1014 3.789127e-07   -796.32356            0   -796.32356    14108.335 
    1015 4.1555777e-07   -796.32356            0   -796.32356     14108.33 
    1016 4.2842547e-07   -796.32356            0   -796.32356    14108.337 
    1017 5.3463565e-08   -796.32356            0   -796.32356    14108.334 
    1018 3.3427577e-08   -796.32356            0   -796.32356    14108.332 
    1019 2.534781e-08   -796.32356            0   -796.32356    14108.331 
    1020 3.0814818e-08   -796.32356            0   -796.32356    14108.331 
    1021 3.717902e-08   -796.32355            0   -796.32355     14108.33 
    1022 4.4116245e-08   -796.32355            0   -796.32355     14108.33 
[...]
    2250 3.2931367e-05   -796.38728            0   -796.38728    14130.746 
    2251 3.4697694e-05   -796.38729            0   -796.38729    14130.738 
    2252 3.6477971e-05    -796.3873            0    -796.3873    14130.732 
    2253 3.8275134e-05   -796.38731            0   -796.38731    14130.719 
    2254 4.0651825e-05   -796.38732            0   -796.38732     14130.73 
    2255 4.6297682e-05   -796.38733            0   -796.38733    14130.664 
    2256 1.8693607e-05   -796.38733            0   -796.38733    14130.718 
    2257 2.3887702e-06   -796.38733            0   -796.38733    14130.705 
    2258 2.1994688e-06   -796.38733            0   -796.38733    14130.702 
    2259 2.6351887e-06   -796.38734            0   -796.38734      14130.7 
    2260 3.1145599e-06   -796.38734            0   -796.38734    14130.698 
    2261   3.6303e-06   -796.38734            0   -796.38734    14130.696 
    2262 4.1811931e-06   -796.38734            0   -796.38734    14130.693 
    2263 4.7659839e-06   -796.38735            0   -796.38735    14130.691 
    2264 5.3833244e-06   -796.38735            0   -796.38735    14130.688 
    2265 6.0317928e-06   -796.38736            0   -796.38736    14130.685 
    2266 6.7098892e-06   -796.38736            0   -796.38736    14130.681 
    2267 7.4160447e-06   -796.38736            0   -796.38736    14130.678 
    2268 8.1486206e-06   -796.38737            0   -796.38737    14130.674 
    2269 8.9059175e-06   -796.38737            0   -796.38737    14130.671 
    2270 9.686174e-06   -796.38738            0   -796.38738    14130.667 
    2271 1.0487578e-05   -796.38738            0   -796.38738    14130.663 
    2272 1.1308262e-05   -796.38739            0   -796.38739    14130.658 
    2273 1.2146322e-05   -796.38739            0   -796.38739    14130.654 
    2274 1.2999797e-05    -796.3874            0    -796.3874    14130.649 
    2275 1.3866725e-05    -796.3874            0    -796.3874    14130.644 
    2276 1.4745044e-05   -796.38741            0   -796.38741    14130.639 
    2277 1.5632818e-05   -796.38742            0   -796.38742    14130.634 
    2278 1.6527746e-05   -796.38742            0   -796.38742    14130.629 
    2279  1.74285e-05   -796.38743            0   -796.38743    14130.624 
    2280 1.8332121e-05   -796.38743            0   -796.38743    14130.617 
    2281 1.9251551e-05   -796.38744            0   -796.38744    14130.614 
    2282 2.0284328e-05   -796.38745            0   -796.38745    14130.599 
    2283 2.2602647e-05   -796.38745            0   -796.38745    14130.624 
    2284 1.9771146e-05   -796.38746            0   -796.38746    14130.565 
    2285 6.6411429e-07   -796.38746            0   -796.38746    14130.574 
    2286 7.5570775e-07   -796.38746            0   -796.38746    14130.584 
    2287 6.9614345e-07   -796.38746            0   -796.38746     14130.59 
    2288 6.6320328e-07   -796.38746            0   -796.38746    14130.593 
    2289 7.7536131e-07   -796.38746            0   -796.38746    14130.593 
    2290 9.5659866e-07   -796.38746            0   -796.38746    14130.592 
    2291 1.1635485e-06   -796.38746            0   -796.38746    14130.591 
    2292 1.389771e-06   -796.38746            0   -796.38746     14130.59 
    2293 1.6345238e-06   -796.38747            0   -796.38747    14130.588 
    2294 1.8972779e-06   -796.38747            0   -796.38747    14130.586 
    2295 2.1774664e-06   -796.38747            0   -796.38747    14130.584 
    2296 2.4744827e-06   -796.38747            0   -796.38747    14130.582 
    2297 2.7876819e-06   -796.38747            0   -796.38747     14130.58 
    2298 3.1163828e-06   -796.38748            0   -796.38748    14130.578 
    2299 3.4598694e-06   -796.38748            0   -796.38748    14130.575 
    2300 3.8173926e-06   -796.38748            0   -796.38748    14130.573 
    2301 4.1881721e-06   -796.38748            0   -796.38748     14130.57 
    2302 4.5713984e-06   -796.38749            0   -796.38749    14130.567 
    2303 4.9662346e-06   -796.38749            0   -796.38749    14130.564 
    2304 5.3718187e-06   -796.38749            0   -796.38749    14130.561 
    2305 5.7872657e-06   -796.38749            0   -796.38749    14130.558 
    2306 6.2116698e-06    -796.3875            0    -796.3875    14130.555 
    2307 6.6441065e-06    -796.3875            0    -796.3875    14130.551 
    2308 7.0836353e-06    -796.3875            0    -796.3875    14130.548 
    2309 7.5293016e-06   -796.38751            0   -796.38751    14130.544 
    2310 7.9801393e-06   -796.38751            0   -796.38751     14130.54 
    2311 8.4351733e-06   -796.38751            0   -796.38751    14130.536 
    2312 8.8934238e-06   -796.38752            0   -796.38752    14130.532 
    2313 9.353898e-06   -796.38752            0   -796.38752    14130.528 
    2314 9.8156673e-06   -796.38753            0   -796.38753    14130.524 
    2315 1.0277813e-05   -796.38753            0   -796.38753     14130.52 
    2316 1.074311e-05   -796.38753            0   -796.38753    14130.514 
    2317 1.1251147e-05   -796.38754            0   -796.38754    14130.515 
    2318 1.240826e-05   -796.38754            0   -796.38754    14130.491 
    2319 1.3046179e-05   -796.38754            0   -796.38754    14130.533 
    2320 8.2357036e-08   -796.38754            0   -796.38754     14130.53 
    2321 1.6618518e-07   -796.38754            0   -796.38754    14130.525 
    2322 2.5447752e-07   -796.38754            0   -796.38754    14130.519 
    2323 3.099575e-07   -796.38754            0   -796.38754    14130.512 
    2324 3.0411412e-07   -796.38754            0   -796.38754    14130.507 
    2325 2.8718915e-07   -796.38754            0   -796.38754    14130.503 
    2326 3.2535896e-07   -796.38755            0   -796.38755    14130.501 
    2327 4.0165464e-07   -796.38755            0   -796.38755      14130.5 
    2328 4.9261976e-07   -796.38755            0   -796.38755    14130.499 
    2329 5.9285708e-07   -796.38755            0   -796.38755    14130.498 
    2330 7.0176536e-07   -796.38755            0   -796.38755    14130.497 
    2331 8.1911691e-07   -796.38755            0   -796.38755    14130.496 
    2332 9.4467588e-07   -796.38755            0   -796.38755    14130.494 
    2333 1.0781891e-06   -796.38755            0   -796.38755    14130.493 
    2334 1.2193867e-06   -796.38755            0   -796.38755    14130.492 
    2335 1.3679827e-06   -796.38755            0   -796.38755     14130.49 
    2336 1.5236757e-06   -796.38755            0   -796.38755    14130.488 
    2337 1.6861497e-06   -796.38756            0   -796.38756    14130.487 
    2338 1.8550746e-06   -796.38756            0   -796.38756    14130.485 
    2339 2.0301074e-06   -796.38756            0   -796.38756    14130.483 
    2340 2.2108925e-06   -796.38756            0   -796.38756    14130.481 
    2341 2.397063e-06   -796.38756            0   -796.38756    14130.479 
    2342 2.5882412e-06   -796.38756            0   -796.38756    14130.476 
    2343 2.7840399e-06   -796.38757            0   -796.38757    14130.474 
    2344 2.984063e-06   -796.38757            0   -796.38757    14130.472 
    2345 3.1879065e-06   -796.38757            0   -796.38757    14130.469 
    2346 3.3951597e-06   -796.38757            0   -796.38757    14130.467 
    2347 3.6054058e-06   -796.38757            0   -796.38757    14130.464 
    2348 3.8182235e-06   -796.38757            0   -796.38757    14130.461 
    2349 4.0331867e-06   -796.38758            0   -796.38758    14130.459 
    2350 4.2498687e-06   -796.38758            0   -796.38758    14130.456 
    2351 4.4678348e-06   -796.38758            0   -796.38758    14130.453 
    2352 4.6866685e-06   -796.38758            0   -796.38758     14130.45 
    2353 4.9058914e-06   -796.38758            0   -796.38758    14130.447 
    2354 5.125247e-06   -796.38759            0   -796.38759    14130.444 
    2355 5.3437604e-06   -796.38759            0   -796.38759    14130.441 
    2356 5.5645625e-06   -796.38759            0   -796.38759    14130.437 
    2357 5.7978571e-06   -796.38759            0   -796.38759    14130.436 
    2358 6.448572e-06   -796.38759            0   -796.38759     14130.42 
    2359 7.9372918e-06   -796.38759            0   -796.38759    14130.452 
    2360 5.8716524e-09   -796.38759            0   -796.38759    14130.452 
    2361 3.0514811e-08   -796.38759            0   -796.38759    14130.451 
    2362 7.3402238e-08   -796.38759            0   -796.38759    14130.448 
    2363 1.2625524e-07   -796.38759            0   -796.38759    14130.444 
    2364 1.7238427e-07   -796.38759            0   -796.38759    14130.439 
    2365 1.8527016e-07   -796.38759            0   -796.38759    14130.433 
    2366 1.557277e-07    -796.3876            0    -796.3876     14130.43 
    2367 1.3720962e-07    -796.3876            0    -796.3876    14130.427 
    2368 1.570628e-07    -796.3876            0    -796.3876    14130.426 
    2369 1.9273282e-07    -796.3876            0    -796.3876    14130.426 
    2370 2.3361869e-07    -796.3876            0    -796.3876    14130.425 
    2371 2.7829883e-07    -796.3876            0    -796.3876    14130.424 
    2372 3.2662067e-07    -796.3876            0    -796.3876    14130.424 
    2373 3.7849124e-07    -796.3876            0    -796.3876    14130.423 
    2374 4.3381402e-07    -796.3876            0    -796.3876    14130.422 
    2375 4.9248552e-07    -796.3876            0    -796.3876    14130.421 
    2376 5.5439582e-07    -796.3876            0    -796.3876     14130.42 
    2377 6.1942871e-07    -796.3876            0    -796.3876    14130.419 
    2378 6.8746202e-07    -796.3876            0    -796.3876    14130.418 
    2379 7.5836784e-07    -796.3876            0    -796.3876    14130.416 
    2380 8.3201285e-07    -796.3876            0    -796.3876    14130.415 
    2381 9.0825858e-07    -796.3876            0    -796.3876    14130.414 
    2382 9.8696173e-07    -796.3876            0    -796.3876    14130.412 
    2383 1.0679745e-06    -796.3876            0    -796.3876    14130.411 
    2384 1.151145e-06    -796.3876            0    -796.3876    14130.409 
    2385 1.2363172e-06    -796.3876            0    -796.3876    14130.408 
    2386 1.3233321e-06   -796.38761            0   -796.38761    14130.406 
    2387 1.412027e-06   -796.38761            0   -796.38761    14130.405 
    2388 1.5022371e-06   -796.38761            0   -796.38761    14130.403 
    2389 1.5937938e-06   -796.38761            0   -796.38761    14130.401 
    2390 1.6865303e-06   -796.38761            0   -796.38761    14130.399 
    2391 1.7802676e-06   -796.38761            0   -796.38761    14130.397 
    2392 1.8748556e-06   -796.38761            0   -796.38761    14130.395 
    2393 1.9700548e-06   -796.38761            0   -796.38761    14130.394 
    2394 2.0659328e-06   -796.38761            0   -796.38761    14130.391 
    2395 2.1618178e-06   -796.38761            0   -796.38761     14130.39 
    2396 2.2637548e-06   -796.38761            0   -796.38761    14130.386 
    2397 2.4115246e-06   -796.38761            0   -796.38761    14130.389 
    2398 3.1071558e-06   -796.38762            0   -796.38762     14130.37 
    2399 1.0248847e-06   -796.38762            0   -796.38762    14130.383 
    2400 1.2201786e-07   -796.38762            0   -796.38762    14130.382 
    2401 1.4144655e-07   -796.38762            0   -796.38762    14130.382 
    2402 1.6574085e-07   -796.38762            0   -796.38762    14130.381 
    2403 1.9180314e-07   -796.38762            0   -796.38762    14130.381 
    2404 2.1959841e-07   -796.38762            0   -796.38762     14130.38 
    2405 2.4906875e-07   -796.38762            0   -796.38762    14130.379 
    2406 2.8016564e-07   -796.38762            0   -796.38762    14130.379 
    2407 3.1283164e-07   -796.38762            0   -796.38762    14130.378 
    2408 3.4701044e-07   -796.38762            0   -796.38762    14130.377 
    2409 3.8263977e-07   -796.38762            0   -796.38762    14130.376 
    2410 4.1965783e-07   -796.38762            0   -796.38762    14130.375 
    2411 4.5799694e-07   -796.38762            0   -796.38762    14130.374 
    2412 4.9759141e-07   -796.38762            0   -796.38762    14130.373 
    2413 5.3836727e-07   -796.38762            0   -796.38762    14130.372 
    2414 5.8025796e-07   -796.38762            0   -796.38762    14130.371 
    2415 6.2317895e-07   -796.38762            0   -796.38762     14130.37 
    2416 6.6707382e-07   -796.38762            0   -796.38762    14130.369 
    2417 7.1182502e-07   -796.38762            0   -796.38762    14130.368 
    2418 7.5744403e-07   -796.38762            0   -796.38762    14130.366 
    2419 8.0365082e-07   -796.38762            0   -796.38762    14130.365 
    2420 8.5097725e-07   -796.38762            0   -796.38762    14130.364 
    2421 8.9857368e-07   -796.38762            0   -796.38762    14130.363 
    2422 9.5630531e-07   -796.38762            0   -796.38762     14130.36 
    2423 1.0571963e-06   -796.38762            0   -796.38762    14130.364 
    2424 1.1018312e-06   -796.38762            0   -796.38762    14130.351 
    2425 1.4029865e-07   -796.38762            0   -796.38762    14130.356 
    2426 7.5527507e-08   -796.38762            0   -796.38762    14130.358 
    2427 6.0682579e-08   -796.38762            0   -796.38762    14130.358 
    2428 7.236378e-08   -796.38762            0   -796.38762    14130.358 
    2429 8.5816985e-08   -796.38762            0   -796.38762    14130.357 
    2430 1.0033872e-07   -796.38762            0   -796.38762    14130.357 
    2431 1.1590674e-07   -796.38762            0   -796.38762    14130.356 
    2432 1.3249419e-07   -796.38762            0   -796.38762    14130.356 
    2433 1.5007294e-07   -796.38762            0   -796.38762    14130.355 
    2434 1.6861292e-07   -796.38762            0   -796.38762    14130.355 
    2435 1.8808246e-07   -796.38762            0   -796.38762    14130.354 
    2436 2.0844819e-07   -796.38762            0   -796.38762    14130.354 
    2437 2.2967523e-07   -796.38762            0   -796.38762    14130.353 
    2438 2.5172715e-07   -796.38762            0   -796.38762    14130.352 
    2439 2.7456616e-07   -796.38762            0   -796.38762    14130.351 
    2440 2.9815303e-07   -796.38762            0   -796.38762    14130.351 
    2441 3.2244739e-07   -796.38762            0   -796.38762     14130.35 
    2442 3.474075e-07   -796.38762            0   -796.38762    14130.349 
    2443 3.7299081e-07   -796.38762            0   -796.38762    14130.348 
    2444 3.9915318e-07   -796.38762            0   -796.38762    14130.347 
    2445 4.2585074e-07   -796.38762            0   -796.38762    14130.346 
    2446 4.5303614e-07   -796.38763            0   -796.38763    14130.345 
    2447 4.806674e-07   -796.38763            0   -796.38763    14130.344 
    2448 5.0868673e-07   -796.38763            0   -796.38763    14130.343 
    2449 5.370763e-07   -796.38763            0   -796.38763    14130.342 
    2450 5.6570712e-07   -796.38763            0   -796.38763    14130.341 
    2451 5.9481717e-07   -796.38763            0   -796.38763     14130.34 
    2452 6.2388252e-07   -796.38763            0   -796.38763    14130.339 
    2453 6.5982966e-07   -796.38763            0   -796.38763    14130.337 
    2454 7.3747963e-07   -796.38763            0   -796.38763    14130.341 
    2455 6.8875951e-07   -796.38763            0   -796.38763     14130.33 
    2456 1.6579265e-08   -796.38763            0   -796.38763    14130.332 
    2457 2.0881732e-08   -796.38763            0   -796.38763    14130.333 
    2458 2.0960079e-08   -796.38763            0   -796.38763    14130.334 
    2459 1.9092703e-08   -796.38763            0   -796.38763    14130.335 
    2460 2.0671822e-08   -796.38763            0   -796.38763    14130.335 
    2461 2.5338187e-08   -796.38763            0   -796.38763    14130.335 
    2462 3.1168642e-08   -796.38763            0   -796.38763    14130.335 
    2463 3.7627256e-08   -796.38763            0   -796.38763    14130.335 
    2464 4.4660537e-08   -796.38763            0   -796.38763    14130.335 
    2465 5.2258215e-08   -796.38763            0   -796.38763    14130.334 
    2466 6.0408049e-08   -796.38763            0   -796.38763    14130.334 
    2467 6.9096702e-08   -796.38763            0   -796.38763    14130.334 
    2468 7.8309932e-08   -796.38763            0   -796.38763    14130.333 
    2469 8.8032592e-08   -796.38763            0   -796.38763    14130.333 
    2470 9.8248666e-08   -796.38763            0   -796.38763    14130.332 
    2471 1.089413e-07   -796.38763            0   -796.38763    14130.332 
    2472 1.2009282e-07   -796.38763            0   -796.38763    14130.331 
    2473 1.316848e-07   -796.38763            0   -796.38763    14130.331 
    2474 1.4369805e-07   -796.38763            0   -796.38763     14130.33 
    2475 1.561127e-07   -796.38763            0   -796.38763     14130.33 
    2476 1.6890819e-07   -796.38763            0   -796.38763    14130.329 
    2477 1.8206334e-07   -796.38763            0   -796.38763    14130.329 
    2478 1.9555641e-07   -796.38763            0   -796.38763    14130.328 
    2479 2.0936507e-07   -796.38763            0   -796.38763    14130.327 
    2480 2.2346653e-07   -796.38763            0   -796.38763    14130.327 
    2481 2.3783749e-07   -796.38763            0   -796.38763    14130.326 
    2482 2.5245432e-07   -796.38763            0   -796.38763    14130.325 
    2483 2.6729281e-07   -796.38763            0   -796.38763    14130.325 
    2484 2.8232905e-07   -796.38763            0   -796.38763    14130.324 
    2485 2.9753684e-07   -796.38763            0   -796.38763    14130.323 
    2486 3.1289652e-07   -796.38763            0   -796.38763    14130.322 
    2487 3.2836558e-07   -796.38763            0   -796.38763    14130.321 
    2488 3.4399086e-07   -796.38763            0   -796.38763    14130.321 
    2489 3.5959878e-07   -796.38763            0   -796.38763     14130.32 
    2490 3.7753924e-07   -796.38763            0   -796.38763    14130.318 
    2491 4.1417085e-07   -796.38763            0   -796.38763    14130.321 
    2492 4.5513968e-07   -796.38763            0   -796.38763    14130.312 
    2493 1.9726164e-09   -796.38763            0   -796.38763    14130.312 
Loop time of 357.296 on 16 procs for 653 steps with 127 atoms

99.0% CPU use with 16 MPI tasks x no OpenMP threads

Minimization stats:
  Stopping criterion = energy tolerance
  Energy initial, next-to-last, final = 
        -796.323338239     -796.387626708     -796.387626708
  Force two-norm initial, final = 1.88285e-06 0.000133996
  Force max component initial, final = 1.70194e-06 3.20187e-05
  Final line search alpha, max atom move = 0 0
  Iterations, force evaluations = 653 653

MPI task timing breakdown:
Section |  min time  |  avg time  |  max time  |%varavg| %total
---------------------------------------------------------------
Pair    | 138.52     | 160.02     | 170.77     |  54.5 | 44.79
Neigh   | 0          | 0          | 0          |   0.0 |  0.00
Comm    | 0.1066     | 10.854     | 32.355     | 209.1 |  3.04
Output  | 0.10847    | 0.10919    | 0.11019    |   0.1 |  0.03
Modify  | 183.84     | 183.84     | 183.84     |   0.0 | 51.45
Other   |            | 2.471      |            |       |  0.69

Nlocal:    7.9375 ave 8 max 7 min
Histogram: 1 0 0 0 0 0 0 0 0 15
Nghost:    821.562 ave 828 max 816 min
Histogram: 4 0 0 4 0 2 2 0 1 3
Neighs:    0 ave 0 max 0 min
Histogram: 16 0 0 0 0 0 0 0 0 0
FullNghs:  1600.62 ave 1622 max 1414 min
Histogram: 1 0 0 0 0 0 0 0 0 15

Total # of neighbors = 25610
Ave neighs/atom = 201.654
Neighbor list builds = 0
Dangerous builds = 0
Total wall time: 0:22:55
