LAMMPS (12 Dec 2018)
Processor partition = 1
Reading data file ...
  orthogonal box = (0 0 0) to (10.0025 12.3537 10.615)
  2 by 4 by 2 MPI processor grid
  reading atoms ...
  127 atoms
Reading potential file lammps-force.nnp with DATE: 20201105
Neighbor list info ...
  update every 1 steps, delay 0 steps, check yes
  max neighbors/atom: 2000, page size: 100000
  master list distance cutoff = 8
  ghost atom cutoff = 8
  binsize = 4, bins = 3 4 3
  1 neighbor lists, perpetual/occasional/extra = 1 0 0
  (1) pair nnp3v, perpetual
      attributes: full, newton on
      pair build: full/bin/atomonly
      stencil: full/bin/3d
      bin: standard
Setting up quickmin style minimization ...
  Unit style    : metal
  Current step  : 0
Per MPI rank memory allocation (min/avg/max) = 2.736 | 2.736 | 2.736 Mbytes
Step Temp E_pair E_mol TotEng Press 
       0            0   -796.68047            0   -796.68047     13401.66 
       6  0.092325754   -796.68154            0   -796.68004    13408.421 
Loop time of 1.88873 on 16 procs for 6 steps with 127 atoms

97.9% CPU use with 16 MPI tasks x no OpenMP threads

Minimization stats:
  Stopping criterion = energy tolerance
  Energy initial, next-to-last, final = 
        -796.680469343     -796.681189813     -796.681544239
  Force two-norm initial, final = 0.292034 0.283352
  Force max component initial, final = 0.0445202 0.0435203
  Final line search alpha, max atom move = 0 0
  Iterations, force evaluations = 6 6

MPI task timing breakdown:
Section |  min time  |  avg time  |  max time  |%varavg| %total
---------------------------------------------------------------
Pair    | 1.5951     | 1.7598     | 1.8382     |   4.8 | 93.17
Neigh   | 0          | 0          | 0          |   0.0 |  0.00
Comm    | 0.050057   | 0.1285     | 0.29318    |  17.8 |  6.80
Output  | 0          | 0          | 0          |   0.0 |  0.00
Modify  | 0          | 0          | 0          |   0.0 |  0.00
Other   |            | 0.0004631  |            |       |  0.02

Nlocal:    7.9375 ave 8 max 7 min
Histogram: 1 0 0 0 0 0 0 0 0 15
Nghost:    819.812 ave 824 max 816 min
Histogram: 4 0 0 0 0 8 0 1 1 2
Neighs:    0 ave 0 max 0 min
Histogram: 16 0 0 0 0 0 0 0 0 0
FullNghs:  1602 ave 1623 max 1420 min
Histogram: 1 0 0 0 0 0 0 0 1 14

Total # of neighbors = 25632
Ave neighs/atom = 201.827
Neighbor list builds = 0
Dangerous builds = 0
Setting up quickmin style minimization ...
  Unit style    : metal
  Current step  : 0
Per MPI rank memory allocation (min/avg/max) = 4.736 | 4.737 | 4.737 Mbytes
Step Temp E_pair E_mol TotEng Press 
       0            0    -796.3429            0    -796.3429    13799.212 
       1   0.15250948    -796.3429            0   -796.34041    13801.234 
       2   0.74837438   -796.34842            0   -796.33623    13830.657 
       3    1.9588191   -796.35958            0   -796.32768    13891.069 
       4    4.0514333   -796.37637            0   -796.31038    13985.669 
       5    7.3974727   -796.39832            0   -796.27784    14111.724 
       6    12.282913   -796.42407            0   -796.22402    14246.758 
       7    18.288345   -796.45104            0   -796.15318    14332.657 
       8    23.099793   -796.47566            0   -796.09944    14299.745 
       9    25.788317   -796.49585            0   -796.07584    14191.276 
      10    27.073515   -796.51148            0   -796.07054    14114.102 
      11    26.920905   -796.52341            0   -796.08495    14088.323 
      12    21.515358   -796.53143            0   -796.18101    13960.236 
      13    0.6881279   -796.53272            0   -796.52151    13703.626 
      14   0.97155604   -796.53426            0   -796.51843    13719.182 
      15    1.0097249    -796.5358            0   -796.51935    13720.198 
      16     1.160181   -796.53741            0   -796.51851    13723.263 
      17     1.324611   -796.53907            0    -796.5175    13726.494 
      18    1.4995964   -796.54079            0   -796.51636    13730.292 
      19     1.685374   -796.54254            0    -796.5151    13734.669 
      20    1.8823729   -796.54433            0   -796.51368     13739.74 
      21    2.0907796   -796.54614            0   -796.51209    13745.495 
      22    2.3111459   -796.54797            0   -796.51033    13751.979 
      23     2.543325    -796.5498            0   -796.50838    13759.169 
      24    2.7876507   -796.55164            0   -796.50624    13767.047 
      25    3.0415301   -796.55346            0   -796.50392     13775.59 
      26    3.2963844   -796.55527            0   -796.50158    13784.545 
      27    3.4788844   -796.55703            0   -796.50037     13793.35 
      28    3.0940062    -796.5586            0   -796.50821    13793.175 
      29   0.94153383   -796.55942            0   -796.54408    13769.632 
      30   0.10827585   -796.55967            0   -796.55791    13758.946 
      31    0.1640232   -796.55999            0   -796.55732    13760.753 
      32   0.20242494   -796.56035            0   -796.55705    13762.724 
      33   0.24067423   -796.56073            0   -796.55681    13764.871 
      34   0.28204075   -796.56114            0   -796.55655    13767.202 
      35   0.32655774   -796.56158            0   -796.55626    13769.724 
      36   0.37417048   -796.56204            0   -796.55595    13772.439 
      37   0.42482493   -796.56253            0   -796.55561    13775.343 
      38    0.4784598   -796.56304            0   -796.55524    13778.437 
      39   0.53500704   -796.56356            0   -796.55485    13781.722 
      40   0.59439087   -796.56411            0   -796.55443    13785.194 
      41   0.65652576   -796.56467            0   -796.55398    13788.851 
      42    0.7213166   -796.56525            0    -796.5535    13792.685 
      43   0.78865686   -796.56584            0     -796.553    13796.699 
      44   0.85843078   -796.56644            0   -796.55246     13800.89 
      45   0.93050826   -796.56705            0    -796.5519    13805.254 
      46    1.0047473   -796.56767            0    -796.5513    13809.783 
      47    1.0809937   -796.56829            0   -796.55069     13814.47 
      48    1.1590784   -796.56892            0   -796.55004    13819.313 
      49    1.2388164   -796.56955            0   -796.54937    13824.301 
      50    1.3200116   -796.57018            0   -796.54868    13829.427 
      51     1.402444    -796.5708            0   -796.54796    13834.676 
      52     1.485895   -796.57143            0   -796.54723    13840.039 
      53    1.5700813   -796.57205            0   -796.54648    13845.503 
      54    1.6548316   -796.57267            0   -796.54572    13851.057 
      55    1.7394469   -796.57329            0   -796.54496    13856.661 
      56    1.8242199    -796.5739            0   -796.54419    13862.399 
      57    1.8896991    -796.5745            0   -796.54372    13867.523 
      58    1.7193621     -796.575            0     -796.547    13871.061 
      59   0.23132678   -796.57517            0    -796.5714    13850.289 
      60   0.02801588   -796.57523            0   -796.57478    13848.469 
      61  0.033659916   -796.57531            0   -796.57476    13849.272 
      62  0.040785381   -796.57539            0   -796.57472    13850.027 
      63  0.048973461   -796.57547            0   -796.57467    13850.815 
      64  0.057940157   -796.57557            0   -796.57462    13851.664 
      65  0.067614295   -796.57567            0   -796.57457     13852.58 
      66  0.077968199   -796.57578            0   -796.57451    13853.563 
      67   0.08898026    -796.5759            0   -796.57445    13854.611 
      68   0.10062837   -796.57602            0   -796.57438    13855.723 
      69   0.11288883   -796.57615            0   -796.57431    13856.897 
      70   0.12573638   -796.57629            0   -796.57424    13858.133 
      71   0.13914414   -796.57644            0   -796.57417    13859.427 
      72   0.15308374   -796.57659            0   -796.57409    13860.778 
      73   0.16752521   -796.57675            0   -796.57402    13862.183 
      74   0.18243692   -796.57691            0   -796.57394    13863.638 
      75    0.1977855   -796.57708            0   -796.57386    13865.142 
      76   0.21353618   -796.57726            0   -796.57378    13866.692 
      77   0.22965272   -796.57744            0    -796.5737    13868.285 
      78   0.24609693   -796.57762            0   -796.57362    13869.918 
      79    0.2628293   -796.57782            0   -796.57353    13871.587 
      80   0.27980904   -796.57801            0   -796.57345    13873.285 
      81   0.29699186   -796.57821            0   -796.57338    13875.012 
      82   0.31433349   -796.57842            0    -796.5733    13876.764 
      83   0.33178671   -796.57863            0   -796.57323    13878.536 
      84   0.34930419   -796.57885            0   -796.57316    13880.325 
      85   0.36683317   -796.57907            0    -796.5731    13882.125 
      86   0.38432784    -796.5793            0   -796.57304    13883.934 
      87   0.40171831   -796.57953            0   -796.57298     13885.74 
      88   0.41898866   -796.57976            0   -796.57294    13887.552 
      89   0.43591542      -796.58            0    -796.5729     13889.31 
      90   0.45255069   -796.58024            0   -796.57287      13891.2 
      91   0.46132613   -796.58048            0   -796.57297    13892.406 
      92    0.3832689    -796.5807            0   -796.57445    13894.247 
      93  0.032473173   -796.58075            0   -796.58022    13888.603 
      94  0.018118659    -796.5808            0    -796.5805    13888.755 
      95  0.021055523   -796.58085            0   -796.58051    13889.089 
      96  0.024284051    -796.5809            0   -796.58051    13889.445 
      97  0.027717116   -796.58096            0   -796.58051    13889.824 
      98  0.031346729   -796.58102            0   -796.58051    13890.225 
      99  0.035165453   -796.58109            0   -796.58052    13890.647 
     100  0.039164994   -796.58116            0   -796.58052     13891.09 
     101  0.043336718   -796.58123            0   -796.58053    13891.552 
     102  0.047671445   -796.58131            0   -796.58053     13892.03 
     103  0.052159506   -796.58139            0   -796.58054    13892.527 
     104  0.056790941   -796.58148            0   -796.58055     13893.04 
     105  0.061555336   -796.58157            0   -796.58056    13893.568 
     106  0.066441805   -796.58166            0   -796.58057    13894.111 
     107  0.071439124   -796.58175            0   -796.58059    13894.666 
     108  0.076535593   -796.58185            0    -796.5806    13895.233 
     109   0.08171928   -796.58195            0   -796.58062    13895.811 
     110  0.086977761   -796.58206            0   -796.58064    13896.398 
     111  0.092298389   -796.58217            0   -796.58066    13896.992 
     112  0.097668027   -796.58228            0   -796.58069    13897.594 
     113   0.10307385   -796.58239            0   -796.58072      13898.2 
     114   0.10850121   -796.58251            0   -796.58075     13898.81 
     115   0.11393895   -796.58263            0   -796.58078    13899.424 
     116     0.119366   -796.58276            0   -796.58081    13900.035 
     117   0.12478512   -796.58289            0   -796.58085    13900.659 
     118   0.13011344   -796.58302            0    -796.5809    13901.241 
     119   0.13536283   -796.58315            0   -796.58094    13901.942 
     120   0.13845293   -796.58328            0   -796.58103    13902.199 
     121   0.12508082    -796.5834            0   -796.58137    13903.515 
     122  0.035318325   -796.58346            0   -796.58288    13901.059 
     123 0.0021977016   -796.58347            0   -796.58344    13900.977 
     124 0.0029775596   -796.58349            0   -796.58344     13901.28 
     125 0.0037870337   -796.58351            0   -796.58345    13901.481 
     126 0.0046790785   -796.58353            0   -796.58346    13901.617 
     127  0.005678463   -796.58356            0   -796.58347    13901.733 
     128 0.0067753079   -796.58359            0   -796.58348    13901.852 
     129 0.0079632798   -796.58362            0   -796.58349    13901.979 
     130 0.0092389858   -796.58365            0    -796.5835    13902.116 
     131  0.010599676   -796.58369            0   -796.58351    13902.262 
     132  0.012042565   -796.58372            0   -796.58353    13902.417 
     133  0.013564688   -796.58377            0   -796.58354    13902.581 
     134  0.015162897   -796.58381            0   -796.58356    13902.754 
     135  0.016833873   -796.58385            0   -796.58358    13902.934 
     136  0.018574126    -796.5839            0    -796.5836    13903.122 
     137  0.020380008   -796.58395            0   -796.58362    13903.317 
     138  0.022247709     -796.584            0   -796.58364     13903.52 
     139  0.024173287   -796.58406            0   -796.58366    13903.728 
     140  0.026152653   -796.58411            0   -796.58369    13903.943 
     141  0.028181586   -796.58417            0   -796.58371    13904.164 
     142   0.03025576   -796.58423            0   -796.58374     13904.39 
     143  0.032370715    -796.5843            0   -796.58377    13904.621 
     144  0.034521913   -796.58436            0    -796.5838    13904.857 
     145  0.036704694   -796.58443            0   -796.58383    13905.095 
     146  0.038914312    -796.5845            0   -796.58386    13905.338 
     147  0.041146027   -796.58457            0    -796.5839    13905.584 
     148  0.043395025   -796.58464            0   -796.58393    13905.832 
     149  0.045656419   -796.58471            0   -796.58397    13906.083 
     150  0.047925347   -796.58479            0   -796.58401    13906.335 
     151  0.050196765   -796.58486            0   -796.58404    13906.589 
     152   0.05246625   -796.58494            0   -796.58409    13906.845 
     153  0.054727608   -796.58502            0   -796.58413    13907.099 
     154  0.056979588    -796.5851            0   -796.58417    13907.361 
     155  0.059202222   -796.58518            0   -796.58422    13907.601 
     156  0.061405461   -796.58526            0   -796.58426    13907.918 
     157  0.063130876   -796.58535            0   -796.58432    13907.955 
     158   0.06136385   -796.58542            0   -796.58442    13908.895 
     159  0.029859452   -796.58546            0   -796.58498     13907.13 
     160 0.00056195068   -796.58547            0   -796.58546    13906.957 
     161 0.00079603044   -796.58548            0   -796.58546    13907.203 
     162 0.0010200271   -796.58548            0   -796.58547    13907.433 
     163 0.0012420754   -796.58549            0   -796.58547    13907.603 
     164 0.0015211817   -796.58551            0   -796.58548    13907.705 
     165 0.0018748869   -796.58552            0   -796.58549    13907.769 
     166 0.0022815446   -796.58553            0    -796.5855    13907.819 
     167 0.0027292645   -796.58555            0    -796.5855    13907.868 
     168 0.0032148876   -796.58557            0   -796.58551    13907.921 
     169 0.0037371875   -796.58559            0   -796.58552    13907.979 
     170  0.004295156   -796.58561            0   -796.58554     13908.04 
     171 0.0048877568   -796.58563            0   -796.58555    13908.105 
     172  0.005513895   -796.58565            0   -796.58556    13908.174 
     173  0.006172388   -796.58567            0   -796.58557    13908.247 
     174 0.0068620018    -796.5857            0   -796.58559    13908.324 
     175 0.0075814435   -796.58572            0    -796.5856    13908.404 
     176 0.0083293675   -796.58575            0   -796.58562    13908.488 
     177 0.0091043708   -796.58578            0   -796.58563    13908.575 
     178 0.0099050066   -796.58581            0   -796.58565    13908.665 
     179  0.010729776   -796.58584            0   -796.58567    13908.758 
     180  0.011577129   -796.58587            0   -796.58569    13908.855 
     181  0.012445493   -796.58591            0   -796.58571    13908.954 
     182   0.01333325   -796.58594            0   -796.58573    13909.057 
     183  0.014238762   -796.58598            0   -796.58575    13909.162 
     184  0.015160357   -796.58601            0   -796.58577     13909.27 
     185   0.01609635   -796.58605            0   -796.58579    13909.381 
     186  0.017045069   -796.58609            0   -796.58581    13909.494 
     187  0.018004762   -796.58613            0   -796.58583     13909.61 
     188  0.018973708   -796.58616            0   -796.58586    13909.728 
     189   0.01995016    -796.5862            0   -796.58588    13909.848 
     190  0.020932429   -796.58624            0    -796.5859     13909.97 
     191   0.02191869   -796.58628            0   -796.58593    13910.094 
     192  0.022907505   -796.58632            0   -796.58595    13910.221 
     193  0.023896469   -796.58637            0   -796.58598     13910.35 
     194   0.02488489   -796.58641            0     -796.586     13910.48 
     195  0.025860325   -796.58645            0   -796.58603    13910.614 
     196   0.02675991   -796.58649            0   -796.58605    13910.743 
     197  0.026706962   -796.58653            0   -796.58609    13910.881 
     198  0.018132906   -796.58656            0   -796.58626    13910.808 
     199 0.0010934449   -796.58657            0   -796.58655    13910.639 
     200 0.0015477463   -796.58658            0   -796.58655     13910.68 
     201 0.0017697199   -796.58659            0   -796.58656    13910.712 
     202 0.0020353127    -796.5866            0   -796.58656    13910.748 
     203 0.0023174351   -796.58661            0   -796.58657    13910.786 
     204 0.0026159885   -796.58662            0   -796.58657    13910.827 
     205  0.002930336   -796.58663            0   -796.58658     13910.87 
     206 0.0032600133   -796.58664            0   -796.58659    13910.916 
     207 0.0036044489   -796.58666            0    -796.5866    13910.964 
     208 0.0039630952   -796.58667            0    -796.5866    13911.015 
     209 0.0043353519   -796.58668            0   -796.58661    13911.068 
     210 0.0047206224    -796.5867            0   -796.58662    13911.123 
     211 0.0051182671   -796.58671            0   -796.58663    13911.181 
     212 0.0055276548   -796.58673            0   -796.58664    13911.241 
     213 0.0059481091   -796.58674            0   -796.58665    13911.303 
     214  0.006378975   -796.58676            0   -796.58666    13911.368 
     215 0.0068195308   -796.58678            0   -796.58667    13911.435 
     216 0.0072691332   -796.58679            0   -796.58668    13911.504 
     217 0.0077269789   -796.58681            0   -796.58668    13911.575 
     218 0.0081925251   -796.58683            0   -796.58669     13911.65 
     219 0.0086646932   -796.58684            0    -796.5867    13911.725 
     220  0.009143471   -796.58686            0   -796.58671    13911.805 
     221 0.0096263306   -796.58688            0   -796.58672    13911.882 
     222  0.010115628    -796.5869            0   -796.58673    13911.973 
     223  0.010595039   -796.58691            0   -796.58674    13912.035 
     224  0.011048436   -796.58693            0   -796.58675    13912.185 
     225  0.011079201   -796.58695            0   -796.58677    13912.089 
     226 0.0087626501   -796.58696            0   -796.58682    13912.549 
     227 0.0019245996   -796.58697            0   -796.58693    13912.122 
     228 0.00090300099   -796.58697            0   -796.58696    13912.203 
     229 0.0010082471   -796.58697            0   -796.58696    13912.223 
     230 0.0011618414   -796.58698            0   -796.58696    13912.252 
     231 0.0013252979   -796.58698            0   -796.58696    13912.282 
     232 0.0014985483   -796.58699            0   -796.58696    13912.314 
     233 0.0016812513   -796.58699            0   -796.58697    13912.347 
     234 0.0018731633     -796.587            0   -796.58697    13912.383 
     235 0.0020739855   -796.58701            0   -796.58697    13912.421 
     236 0.0022834287   -796.58701            0   -796.58698    13912.461 
     237 0.0025011768   -796.58702            0   -796.58698    13912.503 
     238 0.0027269142   -796.58702            0   -796.58698    13912.547 
     239 0.0029603037   -796.58703            0   -796.58698    13912.593 
     240 0.0032010088   -796.58704            0   -796.58699     13912.64 
     241 0.0034486722   -796.58704            0   -796.58699     13912.69 
     242 0.0037029431   -796.58705            0   -796.58699    13912.742 
     243 0.0039634427   -796.58706            0   -796.58699    13912.796 
     244 0.0042298191   -796.58706            0     -796.587    13912.852 
     245 0.0045016572   -796.58707            0     -796.587     13912.91 
     246 0.0047786337   -796.58708            0     -796.587     13912.97 
     247 0.0050602442   -796.58708            0     -796.587    13913.032 
     248 0.0053463261   -796.58709            0     -796.587    13913.097 
     249 0.0056359492    -796.5871            0     -796.587    13913.161 
     250 0.0059298276    -796.5871            0   -796.58701    13913.234 
     251 0.0062240168   -796.58711            0   -796.58701    13913.291 
     252 0.0065215513   -796.58711            0   -796.58701    13913.398 
     253 0.0067683925   -796.58712            0   -796.58701    13913.375 
     254 0.0067483807   -796.58712            0   -796.58701     13913.71 
     255 0.0045777289   -796.58712            0   -796.58705    13913.201 
     256 0.0005948969   -796.58712            0   -796.58712    13913.405 
     257 0.00046175498   -796.58713            0   -796.58712    13913.504 
     258 0.00050332161   -796.58713            0   -796.58712    13913.528 
     259 0.00058715442   -796.58713            0   -796.58712    13913.549 
     260 0.0006772811   -796.58713            0   -796.58712    13913.572 
     261 0.00077335341   -796.58713            0   -796.58712    13913.597 
     262 0.00087525011   -796.58713            0   -796.58712    13913.624 
     263 0.00098283112   -796.58713            0   -796.58712    13913.652 
     264 0.0010959514   -796.58713            0   -796.58711    13913.682 
     265 0.0012144574   -796.58713            0   -796.58711    13913.714 
     266  0.001338189   -796.58713            0   -796.58711    13913.747 
     267 0.0014669792   -796.58713            0   -796.58711    13913.782 
     268 0.0016006543   -796.58713            0   -796.58711    13913.819 
     269 0.0017390347   -796.58714            0   -796.58711    13913.858 
     270 0.0018819343   -796.58714            0   -796.58711    13913.898 
     271 0.0020291606   -796.58714            0    -796.5871     13913.94 
     272 0.0021805196   -796.58714            0    -796.5871    13913.984 
     273 0.0023358116   -796.58714            0    -796.5871    13914.029 
     274 0.0024948313   -796.58714            0    -796.5871    13914.076 
     275  0.002657371   -796.58714            0   -796.58709    13914.125 
     276 0.0028232184   -796.58713            0   -796.58709    13914.176 
     277 0.0029921554   -796.58713            0   -796.58708    13914.228 
     278 0.0031639716   -796.58713            0   -796.58708    13914.282 
     279 0.0033384286   -796.58713            0   -796.58708    13914.338 
     280 0.0035153455   -796.58713            0   -796.58707    13914.396 
     281 0.0036943976   -796.58713            0   -796.58707    13914.455 
     282 0.0038756083   -796.58712            0   -796.58706    13914.517 
     283 0.0040580206   -796.58712            0   -796.58705    13914.578 
     284 0.0042430151   -796.58712            0   -796.58705    13914.648 
     285 0.0044211367   -796.58711            0   -796.58704    13914.699 
     286 0.0045753174   -796.58711            0   -796.58703    13914.817 
     287 0.0042806793    -796.5871            0   -796.58703    13914.715 
     288  0.001690899    -796.5871            0   -796.58707    13914.935 
     289 0.00013255087    -796.5871            0    -796.5871    13914.865 
     290 0.00014535841    -796.5871            0   -796.58709    13914.841 
     291 0.00016842077    -796.5871            0   -796.58709    13914.842 
     292 0.00020351116   -796.58709            0   -796.58709    13914.853 
     293 0.00024370459   -796.58709            0   -796.58709    13914.868 
     294 0.00028743707   -796.58709            0   -796.58709    13914.885 
     295 0.00033458161   -796.58709            0   -796.58708    13914.903 
     296 0.00038508859   -796.58709            0   -796.58708    13914.923 
     297 0.00043889599   -796.58709            0   -796.58708    13914.944 
     298 0.0004959369   -796.58708            0   -796.58708    13914.966 
     299 0.00055614043   -796.58708            0   -796.58707     13914.99 
     300 0.00061943167   -796.58708            0   -796.58707    13915.015 
     301 0.00068573185   -796.58708            0   -796.58706    13915.042 
     302 0.00075495847   -796.58707            0   -796.58706     13915.07 
     303 0.00082702544   -796.58707            0   -796.58706      13915.1 
     304 0.00090184322   -796.58707            0   -796.58705    13915.131 
     305 0.00097931897   -796.58706            0   -796.58705    13915.164 
     306 0.0010593567   -796.58706            0   -796.58704    13915.198 
     307 0.0011418573   -796.58705            0   -796.58703    13915.233 
     308 0.0012267191   -796.58705            0   -796.58703     13915.27 
     309 0.0013138375   -796.58704            0   -796.58702    13915.309 
     310 0.0014031054   -796.58704            0   -796.58702    13915.349 
     311 0.0014944132   -796.58703            0   -796.58701     13915.39 
     312 0.0015876492   -796.58703            0     -796.587    13915.433 
     313 0.0016827001   -796.58702            0   -796.58699    13915.477 
     314 0.0017794504   -796.58701            0   -796.58698    13915.523 
     315 0.0018777831   -796.58701            0   -796.58698    13915.571 
     316 0.0019775791     -796.587            0   -796.58697    13915.619 
     317 0.0020787191   -796.58699            0   -796.58696     13915.67 
     318 0.0021810804   -796.58698            0   -796.58695    13915.722 
     319  0.002284544   -796.58697            0   -796.58694    13915.775 
     320 0.0023889785   -796.58696            0   -796.58692     13915.83 
     321 0.0024942847   -796.58695            0   -796.58691    13915.887 
     322 0.0026002531   -796.58694            0    -796.5869    13915.944 
     323 0.0027069525   -796.58693            0   -796.58689    13916.006 
     324 0.0028125254   -796.58692            0   -796.58687    13916.056 
     325 0.0029080697   -796.58691            0   -796.58686     13916.16 
     326 0.0028091226   -796.58689            0   -796.58685    13916.065 
     327 0.0012029216   -796.58689            0   -796.58687    13916.356 
     328 6.5798262e-06   -796.58689            0   -796.58689    13916.325 
     329 1.2882924e-05   -796.58689            0   -796.58689    13916.301 
     330 2.0987733e-05   -796.58689            0   -796.58689    13916.273 
     331 3.0428343e-05   -796.58689            0   -796.58689    13916.244 
     332 4.0791091e-05   -796.58688            0   -796.58688    13916.224 
     333 5.2527344e-05   -796.58688            0   -796.58688    13916.214 
     334 6.6581997e-05   -796.58688            0   -796.58688    13916.215 
     335 8.2983426e-05   -796.58688            0   -796.58688    13916.223 
     336 0.00010136662   -796.58688            0   -796.58687    13916.234 
     337 0.00012155754   -796.58687            0   -796.58687    13916.246 
     338 0.00014350865   -796.58687            0   -796.58687    13916.259 
     339 0.00016719475   -796.58687            0   -796.58686    13916.274 
     340 0.00019258898   -796.58686            0   -796.58686     13916.29 
     341 0.00021966196   -796.58686            0   -796.58686    13916.307 
     342 0.00024838225   -796.58686            0   -796.58685    13916.325 
     343 0.00027871641   -796.58685            0   -796.58685    13916.345 
     344 0.00031062902   -796.58685            0   -796.58684    13916.365 
     345 0.00034408282   -796.58684            0   -796.58684    13916.387 
     346 0.00037903867   -796.58684            0   -796.58683     13916.41 
     347 0.00041545558   -796.58683            0   -796.58682    13916.434 
     348 0.00045329089   -796.58683            0   -796.58682     13916.46 
     349 0.00049250024   -796.58682            0   -796.58681    13916.486 
     350 0.00053303763   -796.58681            0    -796.5868    13916.514 
     351 0.00057485546   -796.58681            0    -796.5868    13916.542 
     352 0.00061790466    -796.5868            0   -796.58679    13916.572 
     353 0.00066213473   -796.58679            0   -796.58678    13916.604 
     354 0.00070749376   -796.58678            0   -796.58677    13916.636 
     355 0.00075392851   -796.58677            0   -796.58676     13916.67 
     356 0.0008013845   -796.58677            0   -796.58675    13916.704 
     357 0.00084980599   -796.58676            0   -796.58674     13916.74 
     358 0.00089913603   -796.58675            0   -796.58673    13916.777 
     359 0.00094931693   -796.58674            0   -796.58672    13916.816 
     360 0.0010002899   -796.58673            0   -796.58671    13916.855 
     361  0.001051995   -796.58672            0    -796.5867    13916.896 
     362 0.0011043717    -796.5867            0   -796.58669    13916.938 
     363 0.0011573582   -796.58669            0   -796.58667    13916.981 
     364 0.0012108927   -796.58668            0   -796.58666    13917.026 
     365 0.0012649099   -796.58667            0   -796.58665    13917.071 
     366 0.0013193472   -796.58665            0   -796.58663    13917.118 
     367 0.0013740553   -796.58664            0   -796.58662    13917.167 
     368  0.001428328   -796.58662            0    -796.5866    13917.213 
     369 0.0014718174   -796.58661            0   -796.58659    13917.276 
     370 0.0013741429    -796.5866            0   -796.58657     13917.27 
     371 0.00043208498   -796.58659            0   -796.58658     13917.36 
     372 1.0811581e-05   -796.58659            0   -796.58659    13917.345 
     373 1.5795713e-05   -796.58659            0   -796.58659    13917.337 
     374 2.1414965e-05   -796.58659            0   -796.58659    13917.333 
     375 2.7769372e-05   -796.58658            0   -796.58658    13917.334 
     376 3.5244724e-05   -796.58658            0   -796.58658    13917.339 
     377 4.3882341e-05   -796.58658            0   -796.58658    13917.346 
     378 5.3538775e-05   -796.58658            0   -796.58658    13917.355 
     379 6.4140856e-05   -796.58657            0   -796.58657    13917.365 
     380 7.5665118e-05   -796.58657            0   -796.58657    13917.376 
     381 8.8097595e-05   -796.58657            0   -796.58656    13917.389 
     382 0.00010142431   -796.58656            0   -796.58656    13917.402 
     383 0.00011563031   -796.58656            0   -796.58656    13917.415 
     384 0.00013069959   -796.58655            0   -796.58655     13917.43 
     385 0.00014661514   -796.58655            0   -796.58655    13917.446 
     386 0.00016335891   -796.58654            0   -796.58654    13917.463 
     387 0.00018091187   -796.58654            0   -796.58653    13917.481 
     388 0.00019925403   -796.58653            0   -796.58653    13917.499 
     389 0.00021836442   -796.58652            0   -796.58652    13917.519 
     390 0.00023822119   -796.58652            0   -796.58651     13917.54 
     391 0.00025880155   -796.58651            0   -796.58651    13917.561 
     392 0.00028008187    -796.5865            0    -796.5865    13917.583 
     393 0.00030203764    -796.5865            0   -796.58649    13917.607 
     394 0.00032464354   -796.58649            0   -796.58648    13917.631 
     395 0.00034787344   -796.58648            0   -796.58647    13917.657 
     396 0.00037170045   -796.58647            0   -796.58646    13917.683 
     397 0.00039609692   -796.58646            0   -796.58646     13917.71 
     398 0.0004210345   -796.58645            0   -796.58645    13917.738 
     399 0.00044648411   -796.58644            0   -796.58643    13917.767 
     400 0.00047241604   -796.58643            0   -796.58642    13917.797 
     401 0.00049879992   -796.58642            0   -796.58641    13917.829 
     402 0.00052560476   -796.58641            0    -796.5864    13917.861 
     403  0.000552799    -796.5864            0   -796.58639    13917.893 
     404 0.00058035048   -796.58639            0   -796.58638    13917.927 
     405 0.0006082267   -796.58637            0   -796.58636    13917.962 
     406 0.00063639428   -796.58636            0   -796.58635    13917.998 
     407 0.00066482183   -796.58635            0   -796.58634    13918.035 
     408 0.00069347435   -796.58633            0   -796.58632    13918.072 
     409 0.00072231155   -796.58632            0   -796.58631    13918.111 
     410 0.0007513116   -796.58631            0   -796.58629     13918.15 
     411 0.00078031033   -796.58629            0   -796.58628    13918.193 
     412 0.0008085803   -796.58628            0   -796.58626    13918.224 
     413 0.00081950701   -796.58626            0   -796.58625    13918.306 
     414 0.00060215518   -796.58625            0   -796.58624    13918.206 
     415 9.0644402e-06   -796.58625            0   -796.58625    13918.222 
     416 1.2452139e-05   -796.58625            0   -796.58625     13918.25 
     417 1.5275587e-05   -796.58624            0   -796.58624    13918.278 
     418 1.7267761e-05   -796.58624            0   -796.58624    13918.298 
     419 2.0079192e-05   -796.58624            0   -796.58624    13918.311 
     420 2.4419815e-05   -796.58624            0   -796.58624    13918.319 
     421 2.9524004e-05   -796.58623            0   -796.58623    13918.327 
     422 3.5125566e-05   -796.58623            0   -796.58623    13918.335 
     423 4.1193755e-05   -796.58623            0   -796.58623    13918.344 
     424 4.7721591e-05   -796.58622            0   -796.58622    13918.354 
     425 5.470187e-05   -796.58622            0   -796.58622    13918.365 
     426 6.2126795e-05   -796.58622            0   -796.58621    13918.376 
     427 6.9988034e-05   -796.58621            0   -796.58621    13918.388 
     428 7.8276726e-05   -796.58621            0    -796.5862    13918.401 
     429 8.6983492e-05    -796.5862            0    -796.5862    13918.415 
     430 9.6098446e-05   -796.58619            0   -796.58619    13918.429 
     431 0.0001056112   -796.58619            0   -796.58619    13918.444 
     432 0.00011551087   -796.58618            0   -796.58618     13918.46 
     433 0.00012578611   -796.58618            0   -796.58617    13918.477 
     434 0.00013642508   -796.58617            0   -796.58617    13918.494 
     435 0.00014741549   -796.58616            0   -796.58616    13918.512 
     436 0.0001587446   -796.58615            0   -796.58615    13918.531 
     437 0.00017039923   -796.58615            0   -796.58614    13918.551 
     438 0.00018236579   -796.58614            0   -796.58613    13918.571 
     439 0.00019463024   -796.58613            0   -796.58613    13918.592 
     440 0.00020717816   -796.58612            0   -796.58612    13918.614 
     441 0.00021999472   -796.58611            0   -796.58611    13918.636 
     442 0.00023306472    -796.5861            0    -796.5861     13918.66 
     443 0.00024637259   -796.58609            0   -796.58609    13918.684 
     444 0.00025990236   -796.58608            0   -796.58608    13918.709 
     445 0.00027363781   -796.58607            0   -796.58607    13918.734 
     446 0.00028756207   -796.58606            0   -796.58605    13918.761 
     447 0.00030165888   -796.58605            0   -796.58604    13918.788 
     448 0.00031590878   -796.58604            0   -796.58603    13918.816 
     449 0.00033030097   -796.58602            0   -796.58602    13918.844 
     450 0.00034479394   -796.58601            0   -796.58601    13918.874 
     451 0.0003594469     -796.586            0   -796.58599      13918.9 
     452 0.00037391992   -796.58599            0   -796.58598    13918.946 
     453 0.00038913398   -796.58597            0   -796.58597    13918.921 
     454 0.00037301386   -796.58596            0   -796.58596    13919.115 
     455 3.6731363e-05   -796.58596            0   -796.58596    13919.039 
     456 2.4259076e-05   -796.58596            0   -796.58596        13919 
     457 1.8033313e-05   -796.58595            0   -796.58595    13919.001 
     458 2.1137842e-05   -796.58595            0   -796.58595    13919.008 
     459 2.4670224e-05   -796.58595            0   -796.58595    13919.016 
     460 2.8460854e-05   -796.58594            0   -796.58594    13919.024 
     461 3.2505724e-05   -796.58594            0   -796.58594    13919.033 
     462  3.68002e-05   -796.58594            0   -796.58594    13919.042 
     463 4.1339404e-05   -796.58593            0   -796.58593    13919.053 
     464 4.6118134e-05   -796.58593            0   -796.58593    13919.063 
     465 5.1130899e-05   -796.58592            0   -796.58592    13919.075 
     466 5.6371907e-05   -796.58592            0   -796.58592    13919.087 
     467 6.1835082e-05   -796.58591            0   -796.58591    13919.099 
     468 6.7514057e-05    -796.5859            0    -796.5859    13919.113 
     469 7.3402193e-05    -796.5859            0    -796.5859    13919.126 
     470 7.9492567e-05   -796.58589            0   -796.58589    13919.141 
     471 8.5777997e-05   -796.58589            0   -796.58588    13919.156 
     472 9.2251026e-05   -796.58588            0   -796.58588    13919.172 
     473 9.8903956e-05   -796.58587            0   -796.58587    13919.188 
     474 0.0001057288   -796.58586            0   -796.58586    13919.205 
     475 0.00011271739   -796.58586            0   -796.58585    13919.222 
     476 0.00011986119   -796.58585            0   -796.58584    13919.241 
     477 0.00012715168   -796.58584            0   -796.58584    13919.259 
     478 0.00013457959   -796.58583            0   -796.58583    13919.279 
     479 0.00014213657   -796.58582            0   -796.58582    13919.299 
     480 0.0001498113   -796.58581            0   -796.58581    13919.319 
     481 0.00015759958    -796.5858            0    -796.5858     13919.34 
     482 0.00016547791   -796.58579            0   -796.58579    13919.363 
     483 0.00017349059   -796.58578            0   -796.58578    13919.383 
     484 0.00018159683   -796.58577            0   -796.58577    13919.413 
     485 0.00019141951   -796.58576            0   -796.58576    13919.412 
     486 0.00021393004   -796.58575            0   -796.58574    13919.516 
     487 0.00025918226   -796.58574            0   -796.58574    13919.351 
     488 2.004086e-05   -796.58574            0   -796.58574    13919.405 
     489 1.5112406e-05   -796.58574            0   -796.58574     13919.45 
     490 8.9096956e-06   -796.58574            0   -796.58574    13919.473 
     491 8.8322995e-06   -796.58573            0   -796.58573    13919.482 
     492 1.0552382e-05   -796.58573            0   -796.58573    13919.488 
     493 1.2519122e-05   -796.58573            0   -796.58573    13919.494 
     494 1.4646638e-05   -796.58572            0   -796.58572      13919.5 
     495 1.6932403e-05   -796.58572            0   -796.58572    13919.507 
     496 1.9373777e-05   -796.58572            0   -796.58572    13919.515 
     497 2.196794e-05   -796.58571            0   -796.58571    13919.523 
     498 2.4711876e-05   -796.58571            0   -796.58571    13919.531 
     499 2.7602378e-05   -796.58571            0   -796.58571     13919.54 
     500 3.0636052e-05    -796.5857            0    -796.5857    13919.549 
     501 3.3809317e-05    -796.5857            0    -796.5857    13919.559 
     502 3.711841e-05   -796.58569            0   -796.58569     13919.57 
     503 4.0559386e-05   -796.58569            0   -796.58569    13919.581 
     504 4.4128124e-05   -796.58568            0   -796.58568    13919.593 
     505 4.7820327e-05   -796.58567            0   -796.58567    13919.605 
     506 5.1631529e-05   -796.58567            0   -796.58567    13919.617 
     507 5.5557094e-05   -796.58566            0   -796.58566     13919.63 
     508 5.9592219e-05   -796.58566            0   -796.58565    13919.644 
     509 6.3731943e-05   -796.58565            0   -796.58565    13919.658 
     510 6.7971142e-05   -796.58564            0   -796.58564    13919.673 
     511 7.2304542e-05   -796.58563            0   -796.58563    13919.688 
     512 7.6726703e-05   -796.58563            0   -796.58562    13919.704 
     513 8.1232066e-05   -796.58562            0   -796.58562     13919.72 
     514 8.5814857e-05   -796.58561            0   -796.58561    13919.737 
     515 9.0469328e-05    -796.5856            0    -796.5856    13919.754 
     516 9.5189142e-05   -796.58559            0   -796.58559    13919.771 
     517 9.9969095e-05   -796.58558            0   -796.58558     13919.79 
     518 0.00010480014   -796.58557            0   -796.58557    13919.809 
     519 0.0001096854   -796.58556            0   -796.58556    13919.827 
     520 0.00011459556   -796.58555            0   -796.58555    13919.849 
     521 0.00011971345   -796.58554            0   -796.58554    13919.863 
     522 0.00012581871   -796.58553            0   -796.58553    13919.904 
     523 0.00014973386   -796.58552            0   -796.58552     13919.85 
     524  0.000229041   -796.58552            0   -796.58551     13920.05 
     525 6.3050996e-06   -796.58552            0   -796.58552    13920.019 
     526 7.7798138e-06   -796.58552            0   -796.58552    13919.987 
     527 7.2477283e-06   -796.58551            0   -796.58551    13919.958 
     528 4.9833842e-06   -796.58551            0   -796.58551     13919.94 
     529 3.9100587e-06   -796.58551            0   -796.58551    13919.934 
     530 4.3906465e-06   -796.58551            0   -796.58551    13919.936 
     531 5.3293937e-06   -796.58551            0   -796.58551    13919.939 
     532 6.3978218e-06   -796.58551            0   -796.58551    13919.944 
     533 7.5618063e-06    -796.5855            0    -796.5855    13919.949 
     534 8.8185024e-06    -796.5855            0    -796.5855    13919.954 
     535 1.0166379e-05    -796.5855            0    -796.5855     13919.96 
     536 1.1603843e-05   -796.58549            0   -796.58549    13919.966 
     537 1.3129175e-05   -796.58549            0   -796.58549    13919.973 
     538 1.4740545e-05   -796.58549            0   -796.58549     13919.98 
     539 1.6436007e-05   -796.58548            0   -796.58548    13919.988 
     540 1.8213501e-05   -796.58548            0   -796.58548    13919.996 
     541 2.0070859e-05   -796.58547            0   -796.58547    13920.004 
     542 2.2005799e-05   -796.58547            0   -796.58547    13920.013 
     543 2.4015934e-05   -796.58547            0   -796.58546    13920.022 
     544 2.609877e-05   -796.58546            0   -796.58546    13920.032 
     545 2.8251706e-05   -796.58546            0   -796.58545    13920.042 
     546 3.047204e-05   -796.58545            0   -796.58545    13920.052 
     547 3.2756969e-05   -796.58544            0   -796.58544    13920.063 
     548 3.5103589e-05   -796.58544            0   -796.58544    13920.075 
     549 3.7508897e-05   -796.58543            0   -796.58543    13920.086 
     550 3.9969802e-05   -796.58543            0   -796.58542    13920.099 
     551 4.2483103e-05   -796.58542            0   -796.58542    13920.111 
     552 4.5045537e-05   -796.58541            0   -796.58541    13920.124 
     553 4.7653688e-05   -796.58541            0    -796.5854    13920.138 
     554 5.0304199e-05    -796.5854            0    -796.5854    13920.152 
     555 5.2993244e-05   -796.58539            0   -796.58539    13920.166 
     556 5.5717987e-05   -796.58538            0   -796.58538    13920.181 
     557 5.8472401e-05   -796.58537            0   -796.58537    13920.196 
     558 6.1260535e-05   -796.58537            0   -796.58537    13920.211 
     559 6.4059641e-05   -796.58536            0   -796.58536    13920.229 
     560 6.7015469e-05   -796.58535            0   -796.58535     13920.24 
     561 7.0706305e-05   -796.58534            0   -796.58534    13920.275 
     562 8.740543e-05   -796.58533            0   -796.58533    13920.227 
     563 0.00012221815   -796.58533            0   -796.58532    13920.376 
     564 1.8473561e-06   -796.58533            0   -796.58533     13920.36 
     565 2.7603461e-06   -796.58533            0   -796.58533    13920.342 
     566  3.19914e-06   -796.58532            0   -796.58532    13920.322 
     567 2.7904381e-06   -796.58532            0   -796.58532    13920.307 
     568 2.1301541e-06   -796.58532            0   -796.58532    13920.299 
     569 2.0947765e-06   -796.58532            0   -796.58532    13920.297 
     570 2.5124555e-06   -796.58532            0   -796.58532    13920.299 
     571 3.0740216e-06   -796.58532            0   -796.58532    13920.302 
     572 3.7005289e-06   -796.58532            0   -796.58532    13920.306 
     573 4.383367e-06   -796.58531            0   -796.58531     13920.31 
     574 5.1212691e-06   -796.58531            0   -796.58531    13920.314 
     575 5.9133194e-06   -796.58531            0   -796.58531    13920.319 
     576 6.7585479e-06   -796.58531            0   -796.58531    13920.324 
     577 7.6559105e-06    -796.5853            0    -796.5853     13920.33 
     578 8.6042925e-06    -796.5853            0    -796.5853    13920.336 
     579 9.6025086e-06    -796.5853            0    -796.5853    13920.342 
     580 1.0649304e-05   -796.58529            0   -796.58529    13920.348 
     581 1.1743355e-05   -796.58529            0   -796.58529    13920.355 
     582 1.2883272e-05   -796.58529            0   -796.58529    13920.363 
     583 1.4067596e-05   -796.58528            0   -796.58528     13920.37 
     584 1.5294804e-05   -796.58528            0   -796.58528    13920.378 
     585 1.6563308e-05   -796.58527            0   -796.58527    13920.387 
     586 1.7871457e-05   -796.58527            0   -796.58527    13920.396 
     587 1.9217536e-05   -796.58526            0   -796.58526    13920.405 
     588 2.0599772e-05   -796.58526            0   -796.58526    13920.414 
     589 2.2016327e-05   -796.58525            0   -796.58525    13920.424 
     590 2.3465312e-05   -796.58525            0   -796.58525    13920.434 
     591 2.4944767e-05   -796.58524            0   -796.58524    13920.445 
     592  2.64527e-05   -796.58524            0   -796.58523    13920.455 
     593 2.7987012e-05   -796.58523            0   -796.58523    13920.467 
     594 2.9545677e-05   -796.58522            0   -796.58522    13920.478 
     595 3.1126279e-05   -796.58522            0   -796.58522     13920.49 
     596 3.2727312e-05   -796.58521            0   -796.58521    13920.502 
     597 3.4344398e-05    -796.5852            0    -796.5852    13920.515 
     598 3.598262e-05    -796.5852            0   -796.58519    13920.527 
     599 3.7622598e-05   -796.58519            0   -796.58519    13920.542 
     600 3.9422625e-05   -796.58518            0   -796.58518    13920.551 
     601 4.2174645e-05   -796.58517            0   -796.58517    13920.584 
     602 5.895075e-05   -796.58517            0   -796.58516    13920.529 
     603 4.3862038e-05   -796.58516            0   -796.58516    13920.619 
     604 2.1005732e-06   -796.58516            0   -796.58516    13920.604 
     605 1.5072019e-06   -796.58516            0   -796.58516    13920.595 
     606 1.270408e-06   -796.58516            0   -796.58516    13920.592 
     607 1.4668755e-06   -796.58516            0   -796.58516    13920.594 
     608 1.7957992e-06   -796.58516            0   -796.58516    13920.596 
     609 2.1681869e-06   -796.58516            0   -796.58516    13920.599 
     610 2.5747927e-06   -796.58515            0   -796.58515    13920.603 
     611 3.0146708e-06   -796.58515            0   -796.58515    13920.607 
     612 3.4872544e-06   -796.58515            0   -796.58515    13920.611 
     613 3.9919453e-06   -796.58515            0   -796.58515    13920.615 
     614 4.5280982e-06   -796.58514            0   -796.58514    13920.619 
     615 5.095024e-06   -796.58514            0   -796.58514    13920.624 
     616 5.6919892e-06   -796.58514            0   -796.58514     13920.63 
     617 6.3182175e-06   -796.58514            0   -796.58514    13920.635 
     618 6.9728891e-06   -796.58513            0   -796.58513    13920.641 
     619 7.6551426e-06   -796.58513            0   -796.58513    13920.647 
     620 8.3640746e-06   -796.58513            0   -796.58513    13920.653 
     621 9.0987412e-06   -796.58512            0   -796.58512     13920.66 
     622 9.8581578e-06   -796.58512            0   -796.58512    13920.667 
     623 1.0641301e-05   -796.58511            0   -796.58511    13920.674 
     624 1.1447108e-05   -796.58511            0   -796.58511    13920.682 
     625 1.227448e-05   -796.58511            0   -796.58511     13920.69 
     626 1.3122277e-05    -796.5851            0    -796.5851    13920.698 
     627 1.398933e-05    -796.5851            0    -796.5851    13920.706 
     628 1.4874422e-05   -796.58509            0   -796.58509    13920.715 
     629 1.5776328e-05   -796.58509            0   -796.58509    13920.724 
     630 1.6693722e-05   -796.58508            0   -796.58508    13920.734 
     631 1.762543e-05   -796.58508            0   -796.58507    13920.743 
     632 1.8569725e-05   -796.58507            0   -796.58507    13920.753 
     633 1.9526412e-05   -796.58506            0   -796.58506    13920.763 
     634 2.049065e-05   -796.58506            0   -796.58506    13920.774 
     635 2.1475256e-05   -796.58505            0   -796.58505    13920.784 
     636 2.246531e-05   -796.58505            0   -796.58504    13920.799 
     637 2.3983957e-05   -796.58504            0   -796.58504    13920.798 
     638 3.0002971e-05   -796.58503            0   -796.58503    13920.851 
     639 3.4862511e-05   -796.58503            0   -796.58503    13920.782 
     640 5.0161291e-07   -796.58503            0   -796.58503     13920.79 
     641 7.4197586e-07   -796.58503            0   -796.58503      13920.8 
     642 8.3677091e-07   -796.58503            0   -796.58503    13920.811 
     643 7.3625285e-07   -796.58503            0   -796.58503     13920.82 
     644 6.4827448e-07   -796.58503            0   -796.58503    13920.826 
     645 7.2703329e-07   -796.58503            0   -796.58503     13920.83 
     646 9.0138515e-07   -796.58502            0   -796.58502    13920.832 
     647 1.1099303e-06   -796.58502            0   -796.58502    13920.835 
     648 1.3401295e-06   -796.58502            0   -796.58502    13920.837 
     649 1.5910602e-06   -796.58502            0   -796.58502     13920.84 
     650 1.8624501e-06   -796.58502            0   -796.58502    13920.843 
     651 2.1539455e-06   -796.58502            0   -796.58502    13920.847 
     652 2.4651644e-06   -796.58501            0   -796.58501     13920.85 
     653 2.7956963e-06   -796.58501            0   -796.58501    13920.854 
     654 3.1451024e-06   -796.58501            0   -796.58501    13920.859 
     655 3.512916e-06   -796.58501            0   -796.58501    13920.863 
     656 3.8986433e-06     -796.585            0     -796.585    13920.868 
     657 4.3017631e-06     -796.585            0     -796.585    13920.873 
     658 4.7217278e-06     -796.585            0     -796.585    13920.878 
     659 5.1579637e-06     -796.585            0     -796.585    13920.883 
     660 5.6098714e-06   -796.58499            0   -796.58499    13920.889 
     661 6.0768263e-06   -796.58499            0   -796.58499    13920.895 
     662 6.5581794e-06   -796.58499            0   -796.58499    13920.901 
     663 7.0532573e-06   -796.58498            0   -796.58498    13920.907 
     664 7.5613633e-06   -796.58498            0   -796.58498    13920.914 
     665 8.0817775e-06   -796.58497            0   -796.58497    13920.921 
     666 8.6137583e-06   -796.58497            0   -796.58497    13920.928 
     667 9.1565412e-06   -796.58497            0   -796.58497    13920.936 
     668 9.7093434e-06   -796.58496            0   -796.58496    13920.943 
     669 1.0271354e-05   -796.58496            0   -796.58496    13920.951 
     670 1.0841765e-05   -796.58495            0   -796.58495    13920.959 
     671 1.1419682e-05   -796.58495            0   -796.58495    13920.968 
     672 1.2004398e-05   -796.58494            0   -796.58494    13920.976 
     673 1.2594522e-05   -796.58494            0   -796.58494    13920.985 
     674 1.3190849e-05   -796.58493            0   -796.58493    13920.994 
     675 1.3785548e-05   -796.58493            0   -796.58493    13921.004 
     676 1.4392811e-05   -796.58492            0   -796.58492    13921.012 
     677 1.4794927e-05   -796.58491            0   -796.58491     13921.03 
     678 1.3280759e-05   -796.58491            0   -796.58491     13921.01 
     679 1.1920901e-06   -796.58491            0   -796.58491    13921.025 
     680 8.5857052e-07   -796.58491            0   -796.58491    13921.034 
     681 7.7687966e-07   -796.58491            0   -796.58491    13921.037 
     682 9.2754262e-07   -796.58491            0   -796.58491    13921.039 
     683 1.0908188e-06    -796.5849            0    -796.5849    13921.041 
     684 1.2665982e-06    -796.5849            0    -796.5849    13921.044 
     685 1.4546138e-06    -796.5849            0    -796.5849    13921.047 
     686 1.6546217e-06    -796.5849            0    -796.5849    13921.051 
     687 1.8663442e-06    -796.5849            0    -796.5849    13921.054 
     688 2.0894953e-06   -796.58489            0   -796.58489    13921.058 
     689 2.323765e-06   -796.58489            0   -796.58489    13921.062 
     690 2.5688317e-06   -796.58489            0   -796.58489    13921.066 
     691 2.8243516e-06   -796.58489            0   -796.58489     13921.07 
     692 3.089971e-06   -796.58488            0   -796.58488    13921.074 
     693 3.3653113e-06   -796.58488            0   -796.58488    13921.079 
     694 3.6499911e-06   -796.58488            0   -796.58488    13921.084 
     695 3.943593e-06   -796.58488            0   -796.58488    13921.089 
     696 4.2457204e-06   -796.58487            0   -796.58487    13921.095 
     697 4.5558942e-06   -796.58487            0   -796.58487      13921.1 
     698 4.8737596e-06   -796.58487            0   -796.58487    13921.106 
     699 5.1986436e-06   -796.58486            0   -796.58486    13921.112 
     700 5.5305642e-06   -796.58486            0   -796.58486    13921.118 
     701 5.8677247e-06   -796.58486            0   -796.58486    13921.125 
     702 6.2127161e-06   -796.58485            0   -796.58485    13921.131 
     703 6.5530314e-06   -796.58485            0   -796.58485    13921.139 
     704 6.8961937e-06   -796.58484            0   -796.58484    13921.143 
     705 6.9610921e-06   -796.58484            0   -796.58484    13921.159 
     706 5.2469018e-06   -796.58484            0   -796.58484    13921.144 
     707 5.3485476e-07   -796.58484            0   -796.58484    13921.153 
     708 4.3898982e-07   -796.58483            0   -796.58483    13921.159 
     709 4.5533772e-07   -796.58483            0   -796.58483    13921.161 
     710 5.5177363e-07   -796.58483            0   -796.58483    13921.163 
     711 6.5811548e-07   -796.58483            0   -796.58483    13921.165 
     712 7.7338123e-07   -796.58483            0   -796.58483    13921.168 
     713 8.9739662e-07   -796.58483            0   -796.58483     13921.17 
     714 1.0299963e-06   -796.58483            0   -796.58483    13921.173 
     715 1.1709964e-06   -796.58483            0   -796.58483    13921.176 
     716 1.3202031e-06   -796.58482            0   -796.58482    13921.179 
     717 1.4774082e-06   -796.58482            0   -796.58482    13921.182 
     718 1.6423928e-06   -796.58482            0   -796.58482    13921.185 
     719 1.8149246e-06   -796.58482            0   -796.58482    13921.189 
     720 1.9947609e-06   -796.58482            0   -796.58482    13921.193 
     721 2.1816457e-06   -796.58481            0   -796.58481    13921.197 
     722 2.3753139e-06   -796.58481            0   -796.58481    13921.201 
     723 2.5754862e-06   -796.58481            0   -796.58481    13921.206 
     724 2.781878e-06   -796.58481            0   -796.58481     13921.21 
     725 2.9941844e-06    -796.5848            0    -796.5848    13921.215 
     726 3.2121092e-06    -796.5848            0    -796.5848     13921.22 
     727 3.4353074e-06    -796.5848            0    -796.5848    13921.225 
     728 3.6635123e-06   -796.58479            0   -796.58479     13921.23 
     729 3.896237e-06   -796.58479            0   -796.58479    13921.236 
     730 4.1335252e-06   -796.58479            0   -796.58479    13921.241 
     731 4.3739508e-06   -796.58478            0   -796.58478    13921.248 
     732 4.6202946e-06   -796.58478            0   -796.58478    13921.253 
     733 4.862966e-06   -796.58478            0   -796.58478    13921.261 
     734 5.1369886e-06   -796.58477            0   -796.58477    13921.263 
     735 5.374166e-06   -796.58477            0   -796.58477    13921.281 
     736 4.3337747e-06   -796.58477            0   -796.58477    13921.262 
     737 2.1754441e-07   -796.58477            0   -796.58477    13921.268 
     738 2.2303471e-07   -796.58477            0   -796.58477    13921.274 
     739 2.0138542e-07   -796.58476            0   -796.58476    13921.277 
     740 2.2327594e-07   -796.58476            0   -796.58476     13921.28 
     741 2.7708077e-07   -796.58476            0   -796.58476    13921.281 
     742 3.4016741e-07   -796.58476            0   -796.58476    13921.283 
     743 4.0947714e-07   -796.58476            0   -796.58476    13921.284 
     744 4.8491578e-07   -796.58476            0   -796.58476    13921.286 
     745 5.6638613e-07   -796.58476            0   -796.58476    13921.288 
     746 6.5377512e-07   -796.58476            0   -796.58476    13921.291 
     747 7.4696209e-07   -796.58476            0   -796.58476    13921.293 
     748 8.4581708e-07   -796.58475            0   -796.58475    13921.296 
     749 9.5020182e-07   -796.58475            0   -796.58475    13921.299 
     750 1.0599693e-06   -796.58475            0   -796.58475    13921.301 
     751 1.1749645e-06   -796.58475            0   -796.58475    13921.305 
     752 1.295024e-06   -796.58475            0   -796.58475    13921.308 
     753 1.4199765e-06   -796.58475            0   -796.58475    13921.311 
     754 1.5496429e-06   -796.58474            0   -796.58474    13921.315 
     755 1.6838367e-06   -796.58474            0   -796.58474    13921.319 
     756 1.8223635e-06   -796.58474            0   -796.58474    13921.322 
     757 1.9650231e-06   -796.58474            0   -796.58474    13921.327 
     758 2.1116057e-06   -796.58473            0   -796.58473    13921.331 
     759 2.2619003e-06   -796.58473            0   -796.58473    13921.335 
     760 2.4156773e-06   -796.58473            0   -796.58473     13921.34 
     761 2.5727297e-06   -796.58473            0   -796.58473    13921.345 
     762 2.732772e-06   -796.58472            0   -796.58472    13921.349 
     763 2.8957094e-06   -796.58472            0   -796.58472    13921.354 
     764 3.0608826e-06   -796.58472            0   -796.58472     13921.36 
     765 3.2293351e-06   -796.58471            0   -796.58471    13921.365 
     766 3.396945e-06   -796.58471            0   -796.58471    13921.371 
     767 3.5802459e-06   -796.58471            0   -796.58471    13921.375 
     768 3.7675379e-06    -796.5847            0    -796.5847    13921.387 
     769 4.0202821e-06    -796.5847            0    -796.5847    13921.373 
     770 5.1529294e-07    -796.5847            0    -796.5847    13921.383 
     771 2.8020046e-07    -796.5847            0    -796.5847    13921.388 
     772 2.2394623e-07    -796.5847            0    -796.5847     13921.39 
     773 2.7026517e-07    -796.5847            0    -796.5847    13921.391 
     774 3.2074636e-07    -796.5847            0    -796.5847    13921.393 
     775 3.7534959e-07    -796.5847            0    -796.5847    13921.395 
     776 4.3396495e-07   -796.58469            0   -796.58469    13921.397 
     777 4.9652239e-07   -796.58469            0   -796.58469    13921.399 
     778 5.6292849e-07   -796.58469            0   -796.58469    13921.401 
     779 6.3309406e-07   -796.58469            0   -796.58469    13921.403 
     780 7.0691667e-07   -796.58469            0   -796.58469    13921.406 
     781 7.842951e-07   -796.58469            0   -796.58469    13921.409 
     782 8.6511535e-07   -796.58469            0   -796.58469    13921.411 
     783 9.4926692e-07   -796.58468            0   -796.58468    13921.414 
     784 1.036622e-06   -796.58468            0   -796.58468    13921.418 
     785 1.1270659e-06   -796.58468            0   -796.58468    13921.421 
     786 1.2204487e-06   -796.58468            0   -796.58468    13921.424 
     787 1.3166713e-06   -796.58468            0   -796.58468    13921.428 
     788  1.41552e-06   -796.58467            0   -796.58467    13921.431 
     789 1.5170099e-06   -796.58467            0   -796.58467    13921.435 
     790 1.6206237e-06   -796.58467            0   -796.58467    13921.439 
     791 1.7271322e-06   -796.58467            0   -796.58467    13921.443 
     792 1.8340689e-06   -796.58466            0   -796.58466    13921.448 
     793 1.9487601e-06   -796.58466            0   -796.58466    13921.451 
     794 2.0595956e-06   -796.58466            0   -796.58466    13921.459 
     795 2.2737287e-06   -796.58466            0   -796.58466    13921.454 
     796 1.8566824e-06   -796.58465            0   -796.58465    13921.472 
     797 1.9324517e-07   -796.58465            0   -796.58465    13921.468 
     798 1.3695889e-07   -796.58465            0   -796.58465    13921.466 
     799 1.2235456e-07   -796.58465            0   -796.58465    13921.466 
     800 1.4841008e-07   -796.58465            0   -796.58465    13921.467 
     801 1.8062774e-07   -796.58465            0   -796.58465    13921.468 
     802 2.1595971e-07   -796.58465            0   -796.58465     13921.47 
     803 2.5428871e-07   -796.58465            0   -796.58465    13921.471 
     804 2.9556642e-07   -796.58465            0   -796.58465    13921.473 
     805 3.397344e-07   -796.58465            0   -796.58465    13921.475 
     806 3.8673176e-07   -796.58465            0   -796.58465    13921.477 
     807 4.3649238e-07   -796.58465            0   -796.58465    13921.479 
     808 4.8894665e-07   -796.58464            0   -796.58464    13921.481 
     809 5.4402025e-07   -796.58464            0   -796.58464    13921.483 
     810 6.0163551e-07   -796.58464            0   -796.58464    13921.486 
     811 6.6171011e-07   -796.58464            0   -796.58464    13921.488 
     812 7.2415891e-07   -796.58464            0   -796.58464    13921.491 
     813 7.8889164e-07   -796.58464            0   -796.58464    13921.494 
     814 8.5581683e-07   -796.58463            0   -796.58463    13921.497 
     815 9.2483532e-07   -796.58463            0   -796.58463      13921.5 
     816 9.9585284e-07   -796.58463            0   -796.58463    13921.503 
     817 1.0687547e-06   -796.58463            0   -796.58463    13921.506 
     818 1.1434619e-06   -796.58463            0   -796.58463     13921.51 
     819 1.2197998e-06   -796.58462            0   -796.58462    13921.513 
     820 1.2978287e-06   -796.58462            0   -796.58462    13921.517 
     821 1.3769696e-06   -796.58462            0   -796.58462    13921.521 
     822 1.4585526e-06   -796.58462            0   -796.58462    13921.525 
     823 1.5389731e-06   -796.58461            0   -796.58461     13921.53 
     824 1.6400489e-06   -796.58461            0   -796.58461    13921.531 
     825 1.7946545e-06   -796.58461            0   -796.58461    13921.543 
     826 1.6522758e-06   -796.58461            0   -796.58461    13921.531 
     827 8.2401997e-08   -796.58461            0   -796.58461    13921.534 
     828 8.1935264e-08   -796.58461            0   -796.58461    13921.538 
     829 6.8103203e-08   -796.58461            0   -796.58461     13921.54 
     830 7.1801897e-08   -796.58461            0   -796.58461    13921.542 
     831 8.9269368e-08   -796.58461            0   -796.58461    13921.543 
     832 1.1036708e-07   -796.58461            0   -796.58461    13921.544 
     833 1.3362596e-07   -796.58461            0   -796.58461    13921.545 
     834 1.5901131e-07    -796.5846            0    -796.5846    13921.546 
     835 1.8649105e-07    -796.5846            0    -796.5846    13921.548 
     836 2.1602708e-07    -796.5846            0    -796.5846    13921.549 
     837 2.4757891e-07    -796.5846            0    -796.5846    13921.551 
     838 2.8110276e-07    -796.5846            0    -796.5846    13921.553 
     839 3.1655211e-07    -796.5846            0    -796.5846    13921.554 
     840 3.5387741e-07    -796.5846            0    -796.5846    13921.556 
     841 3.9302644e-07    -796.5846            0    -796.5846    13921.558 
     842 4.3394411e-07    -796.5846            0    -796.5846    13921.561 
     843 4.7657281e-07   -796.58459            0   -796.58459    13921.563 
     844 5.2085212e-07   -796.58459            0   -796.58459    13921.565 
     845 5.6671945e-07   -796.58459            0   -796.58459    13921.568 
     846 6.1410922e-07   -796.58459            0   -796.58459    13921.571 
     847 6.6295459e-07   -796.58459            0   -796.58459    13921.573 
     848 7.1318426e-07   -796.58459            0   -796.58459    13921.576 
     849 7.6472963e-07   -796.58458            0   -796.58458    13921.579 
     850 8.1750868e-07   -796.58458            0   -796.58458    13921.582 
     851 8.7146591e-07   -796.58458            0   -796.58458    13921.585 
     852 9.2646858e-07   -796.58458            0   -796.58458    13921.589 
     853 9.8259588e-07   -796.58458            0   -796.58458    13921.592 
     854 1.039306e-06   -796.58457            0   -796.58457    13921.596 
     855 1.0981751e-06   -796.58457            0   -796.58457    13921.599 
     856 1.155903e-06   -796.58457            0   -796.58457    13921.604 
     857 1.2520259e-06   -796.58457            0   -796.58457    13921.604 
     858 1.4565361e-06   -796.58457            0   -796.58457    13921.618 
     859 4.1488225e-07   -796.58457            0   -796.58457    13921.611 
     860 8.0295841e-08   -796.58456            0   -796.58456    13921.612 
     861 9.6544438e-08   -796.58456            0   -796.58456    13921.613 
     862 1.1461001e-07   -796.58456            0   -796.58456    13921.614 
     863 1.3411642e-07   -796.58456            0   -796.58456    13921.615 
     864 1.5507277e-07   -796.58456            0   -796.58456    13921.616 
     865 1.7743378e-07   -796.58456            0   -796.58456    13921.618 
     866 2.0117872e-07   -796.58456            0   -796.58456    13921.619 
     867 2.2626744e-07   -796.58456            0   -796.58456    13921.621 
     868 2.5267233e-07   -796.58456            0   -796.58456    13921.623 
     869 2.8034936e-07   -796.58456            0   -796.58456    13921.624 
     870 3.0926943e-07   -796.58456            0   -796.58456    13921.626 
     871 3.3937951e-07   -796.58455            0   -796.58455    13921.628 
     872 3.706573e-07   -796.58455            0   -796.58455    13921.631 
     873 4.0302595e-07   -796.58455            0   -796.58455    13921.633 
     874 4.3650113e-07   -796.58455            0   -796.58455    13921.635 
     875 4.709152e-07   -796.58455            0   -796.58455    13921.637 
     876 5.0648138e-07   -796.58455            0   -796.58455     13921.64 
     877 5.4257188e-07   -796.58455            0   -796.58455    13921.643 
     878 5.8071136e-07   -796.58454            0   -796.58454    13921.645 
     879 6.1801211e-07   -796.58454            0   -796.58454    13921.649 
     880 6.7238034e-07   -796.58454            0   -796.58454    13921.649 
     881 7.5565741e-07   -796.58454            0   -796.58454    13921.658 
     882 6.0738514e-07   -796.58454            0   -796.58454    13921.651 
     883 8.7074809e-08   -796.58454            0   -796.58454    13921.654 
     884 4.8316512e-08   -796.58454            0   -796.58454    13921.656 
     885 5.3488175e-08   -796.58454            0   -796.58454    13921.657 
     886 6.5376767e-08   -796.58454            0   -796.58454    13921.658 
     887 7.8406042e-08   -796.58454            0   -796.58454    13921.659 
     888 9.2569557e-08   -796.58454            0   -796.58454     13921.66 
     889  1.07843e-07   -796.58453            0   -796.58453    13921.661 
     890 1.2420759e-07   -796.58453            0   -796.58453    13921.662 
     891 1.4164046e-07   -796.58453            0   -796.58453    13921.664 
     892 1.601186e-07   -796.58453            0   -796.58453    13921.665 
     893 1.7961646e-07   -796.58453            0   -796.58453    13921.667 
     894 2.0010799e-07   -796.58453            0   -796.58453    13921.668 
     895 2.2156465e-07   -796.58453            0   -796.58453     13921.67 
     896 2.4395781e-07   -796.58453            0   -796.58453    13921.672 
     897 2.6725569e-07   -796.58453            0   -796.58453    13921.673 
     898 2.9142797e-07   -796.58453            0   -796.58453    13921.675 
     899 3.1643835e-07   -796.58453            0   -796.58453    13921.677 
     900 3.4225809e-07   -796.58452            0   -796.58452     13921.68 
     901 3.6883959e-07   -796.58452            0   -796.58452    13921.682 
     902 3.9617262e-07   -796.58452            0   -796.58452    13921.684 
     903 4.2415659e-07   -796.58452            0   -796.58452    13921.686 
     904 4.5291454e-07   -796.58452            0   -796.58452    13921.689 
     905 4.8199544e-07   -796.58452            0   -796.58452    13921.692 
     906 5.1275015e-07   -796.58451            0   -796.58451    13921.694 
     907 5.4310363e-07   -796.58451            0   -796.58451    13921.698 
     908 6.0065785e-07   -796.58451            0   -796.58451    13921.697 
     909 7.1204552e-07   -796.58451            0   -796.58451    13921.708 
     910 2.2243423e-07   -796.58451            0   -796.58451    13921.702 
     911 4.3708771e-08   -796.58451            0   -796.58451    13921.703 
     912 5.2929687e-08   -796.58451            0   -796.58451    13921.704 
     913 6.2991451e-08   -796.58451            0   -796.58451    13921.705 
     914 7.3886645e-08   -796.58451            0   -796.58451    13921.706 
     915 8.5599547e-08   -796.58451            0   -796.58451    13921.707 
     916 9.8115284e-08   -796.58451            0   -796.58451    13921.708 
     917 1.114169e-07   -796.58451            0   -796.58451    13921.709 
     918 1.2548697e-07   -796.58451            0   -796.58451    13921.711 
     919 1.4030643e-07    -796.5845            0    -796.5845    13921.712 
     920 1.5585574e-07    -796.5845            0    -796.5845    13921.713 
     921 1.7211367e-07    -796.5845            0    -796.5845    13921.715 
     922 1.8905882e-07    -796.5845            0    -796.5845    13921.717 
     923 2.066676e-07    -796.5845            0    -796.5845    13921.718 
     924 2.2491753e-07    -796.5845            0    -796.5845     13921.72 
     925 2.4378154e-07    -796.5845            0    -796.5845    13921.722 
     926 2.6323888e-07    -796.5845            0    -796.5845    13921.724 
     927 2.8325282e-07    -796.5845            0    -796.5845    13921.726 
     928 3.0382033e-07   -796.58449            0   -796.58449    13921.728 
     929 3.248544e-07   -796.58449            0   -796.58449     13921.73 
     930 3.4648738e-07   -796.58449            0   -796.58449    13921.732 
     931 3.6828522e-07   -796.58449            0   -796.58449    13921.735 
     932 3.9183689e-07   -796.58449            0   -796.58449    13921.737 
     933 4.1639719e-07   -796.58449            0   -796.58449     13921.74 
     934 4.8690631e-07   -796.58449            0   -796.58449    13921.739 
     935 5.9838479e-07   -796.58449            0   -796.58449    13921.749 
     936 6.5753563e-08   -796.58448            0   -796.58448    13921.747 
     937 4.207607e-08   -796.58448            0   -796.58448    13921.745 
     938 2.4921475e-08   -796.58448            0   -796.58448    13921.745 
     939 2.8893668e-08   -796.58448            0   -796.58448    13921.745 
     940 3.5311596e-08   -796.58448            0   -796.58448    13921.746 
     941 4.2376374e-08   -796.58448            0   -796.58448    13921.747 
     942 5.0054958e-08   -796.58448            0   -796.58448    13921.748 
     943 5.8339701e-08   -796.58448            0   -796.58448    13921.749 
     944 6.7219131e-08   -796.58448            0   -796.58448    13921.749 
     945 7.6682141e-08   -796.58448            0   -796.58448    13921.751 
     946 8.6716123e-08   -796.58448            0   -796.58448    13921.752 
     947 9.730822e-08   -796.58448            0   -796.58448    13921.753 
     948 1.084443e-07   -796.58448            0   -796.58448    13921.754 
     949 1.2011005e-07   -796.58448            0   -796.58448    13921.755 
     950 1.3228971e-07   -796.58448            0   -796.58448    13921.757 
     951 1.4496784e-07   -796.58448            0   -796.58448    13921.758 
     952 1.5812668e-07   -796.58448            0   -796.58448     13921.76 
     953 1.7175067e-07   -796.58447            0   -796.58447    13921.761 
     954 1.8581822e-07   -796.58447            0   -796.58447    13921.763 
     955 2.0031819e-07   -796.58447            0   -796.58447    13921.765 
     956 2.1521445e-07   -796.58447            0   -796.58447    13921.767 
     957 2.3052861e-07   -796.58447            0   -796.58447    13921.768 
     958 2.4613653e-07   -796.58447            0   -796.58447     13921.77 
     959 2.6232703e-07   -796.58447            0   -796.58447    13921.772 
     960 2.7840698e-07   -796.58447            0   -796.58447    13921.775 
     961 2.9866107e-07   -796.58447            0   -796.58447    13921.776 
     962 3.3202549e-07   -796.58446            0   -796.58446    13921.781 
     963 4.4410909e-07   -796.58446            0   -796.58446    13921.775 
     964 8.305196e-08   -796.58446            0   -796.58446    13921.779 
     965 2.8788806e-08   -796.58446            0   -796.58446    13921.781 
     966 2.4136108e-08   -796.58446            0   -796.58446    13921.782 
     967 2.9170675e-08   -796.58446            0   -796.58446    13921.782 
     968 3.4688332e-08   -796.58446            0   -796.58446    13921.783 
     969 4.0657086e-08   -796.58446            0   -796.58446    13921.784 
     970 4.707441e-08   -796.58446            0   -796.58446    13921.785 
     971 5.3929785e-08   -796.58446            0   -796.58446    13921.786 
     972 6.1216004e-08   -796.58446            0   -796.58446    13921.787 
     973 6.8922532e-08   -796.58446            0   -796.58446    13921.788 
     974 7.7040697e-08   -796.58446            0   -796.58446    13921.789 
     975 8.5558721e-08   -796.58446            0   -796.58446     13921.79 
     976 9.4467393e-08   -796.58446            0   -796.58446    13921.791 
     977 1.0375271e-07   -796.58446            0   -796.58446    13921.792 
     978 1.1340672e-07   -796.58445            0   -796.58445    13921.794 
     979 1.2340988e-07   -796.58445            0   -796.58445    13921.795 
     980 1.3376279e-07   -796.58445            0   -796.58445    13921.796 
     981 1.4442424e-07   -796.58445            0   -796.58445    13921.798 
     982 1.5544305e-07   -796.58445            0   -796.58445    13921.799 
     983 1.6666228e-07   -796.58445            0   -796.58445    13921.801 
     984 1.784739e-07   -796.58445            0   -796.58445    13921.803 
     985 1.9013009e-07   -796.58445            0   -796.58445    13921.805 
     986 2.0682018e-07   -796.58445            0   -796.58445    13921.805 
     987  2.38107e-07   -796.58445            0   -796.58445    13921.811 
     988 2.699736e-07   -796.58445            0   -796.58445    13921.806 
     989 3.5236704e-08   -796.58445            0   -796.58445    13921.808 
     990 1.8120029e-08   -796.58444            0   -796.58444     13921.81 
     991 1.4743827e-08   -796.58444            0   -796.58444     13921.81 
     992 1.8113645e-08   -796.58444            0   -796.58444    13921.811 
     993 2.1949822e-08   -796.58444            0   -796.58444    13921.811 
     994 2.6141425e-08   -796.58444            0   -796.58444    13921.812 
     995 3.0682134e-08   -796.58444            0   -796.58444    13921.813 
     996 3.5566625e-08   -796.58444            0   -796.58444    13921.813 
     997  4.07887e-08   -796.58444            0   -796.58444    13921.814 
     998 4.6341929e-08   -796.58444            0   -796.58444    13921.815 
     999 5.2219298e-08   -796.58444            0   -796.58444    13921.816 
    1000 5.8413496e-08   -796.58444            0   -796.58444    13921.817 
    1001 6.4916659e-08   -796.58444            0   -796.58444    13921.818 
    1002 7.1720685e-08   -796.58444            0   -796.58444    13921.819 
    1003 7.8816851e-08   -796.58444            0   -796.58444     13921.82 
    1004 8.6196401e-08   -796.58444            0   -796.58444    13921.821 
    1005 9.3849617e-08   -796.58444            0   -796.58444    13921.823 
    1006 1.0176753e-07   -796.58444            0   -796.58444    13921.824 
    1007 1.099386e-07   -796.58444            0   -796.58444    13921.825 
    1008 1.1835582e-07   -796.58443            0   -796.58443    13921.827 
    1009 1.2700056e-07   -796.58443            0   -796.58443    13921.828 
    1010 1.3588217e-07   -796.58443            0   -796.58443     13921.83 
    1011 1.4493595e-07   -796.58443            0   -796.58443    13921.831 
    1012 1.5431532e-07   -796.58443            0   -796.58443    13921.833 
    1013 1.6362876e-07   -796.58443            0   -796.58443    13921.835 
    1014 1.7533943e-07   -796.58443            0   -796.58443    13921.836 
    1015 1.9493086e-07   -796.58443            0   -796.58443     13921.84 
    1016 2.5939945e-07   -796.58443            0   -796.58443    13921.835 
    1017 3.4559285e-08   -796.58443            0   -796.58443    13921.838 
    1018 1.8039784e-08   -796.58443            0   -796.58443     13921.84 
    1019 1.1307006e-08   -796.58443            0   -796.58443     13921.84 
    1020 1.3796732e-08   -796.58443            0   -796.58443    13921.841 
    1021 1.6669715e-08   -796.58443            0   -796.58443    13921.841 
    1022 1.9807322e-08   -796.58443            0   -796.58443    13921.842 
[...]
    2250 2.0749404e-05   -796.61739            0   -796.61738    13860.115 
    2251 2.1872525e-05   -796.61739            0   -796.61739    13860.093 
    2252 2.2987998e-05    -796.6174            0    -796.6174    13860.067 
    2253 2.4338418e-05   -796.61741            0   -796.61741     13860.05 
    2254 2.7291062e-05   -796.61742            0   -796.61742    13860.002 
    2255 4.7029795e-05   -796.61743            0   -796.61743    13860.052 
    2256 2.8277436e-05   -796.61743            0   -796.61743    13859.977 
    2257 2.2055483e-06   -796.61743            0   -796.61743    13859.985 
    2258 1.3887384e-06   -796.61743            0   -796.61743    13859.981 
    2259 1.6531253e-06   -796.61744            0   -796.61744    13859.975 
    2260 1.9548991e-06   -796.61744            0   -796.61744    13859.969 
    2261 2.2795189e-06   -796.61744            0   -796.61744    13859.962 
    2262 2.6263406e-06   -796.61744            0   -796.61744    13859.954 
    2263 2.9945341e-06   -796.61745            0   -796.61745    13859.946 
    2264 3.3832552e-06   -796.61745            0   -796.61745    13859.937 
    2265 3.7915915e-06   -796.61745            0   -796.61745    13859.928 
    2266 4.2185925e-06   -796.61746            0   -796.61746    13859.918 
    2267 4.6632531e-06   -796.61746            0   -796.61746    13859.908 
    2268 5.124532e-06   -796.61746            0   -796.61746    13859.898 
    2269 5.601338e-06   -796.61747            0   -796.61747    13859.886 
    2270 6.0925515e-06   -796.61747            0   -796.61747    13859.875 
    2271 6.5970018e-06   -796.61748            0   -796.61748    13859.862 
    2272 7.113508e-06   -796.61748            0   -796.61748     13859.85 
    2273 7.6408198e-06   -796.61748            0   -796.61748    13859.837 
    2274 8.1777311e-06   -796.61749            0   -796.61749    13859.823 
    2275 8.7228678e-06   -796.61749            0   -796.61749    13859.809 
    2276 9.2751465e-06    -796.6175            0    -796.6175    13859.795 
    2277 9.8327469e-06    -796.6175            0    -796.6175     13859.78 
    2278 1.0395677e-05   -796.61751            0   -796.61751    13859.765 
    2279 1.095948e-05   -796.61752            0   -796.61751    13859.749 
    2280 1.1536458e-05   -796.61752            0   -796.61752    13859.734 
    2281 1.2131639e-05   -796.61753            0   -796.61753    13859.715 
    2282 1.3262693e-05   -796.61753            0   -796.61753     13859.71 
    2283 1.8995218e-05   -796.61754            0   -796.61754    13859.656 
    2284 2.886007e-05   -796.61754            0   -796.61754    13859.716 
    2285 1.0150255e-06   -796.61754            0   -796.61754    13859.703 
    2286 1.0454358e-06   -796.61754            0   -796.61754    13859.689 
    2287 7.488372e-07   -796.61754            0   -796.61754    13859.678 
    2288 4.9007506e-07   -796.61754            0   -796.61754    13859.671 
    2289 4.9116129e-07   -796.61754            0   -796.61754    13859.666 
    2290 5.9769549e-07   -796.61754            0   -796.61754    13859.663 
    2291 7.2736713e-07   -796.61755            0   -796.61755    13859.659 
    2292 8.692376e-07   -796.61755            0   -796.61755    13859.655 
    2293 1.0227301e-06   -796.61755            0   -796.61755    13859.651 
    2294 1.1875245e-06   -796.61755            0   -796.61755    13859.646 
    2295 1.363256e-06   -796.61755            0   -796.61755    13859.641 
    2296 1.5495365e-06   -796.61755            0   -796.61755    13859.635 
    2297 1.7459529e-06   -796.61756            0   -796.61756    13859.629 
    2298 1.9520686e-06   -796.61756            0   -796.61756    13859.623 
    2299 2.1674241e-06   -796.61756            0   -796.61756    13859.616 
    2300 2.3915387e-06   -796.61756            0   -796.61756     13859.61 
    2301 2.6239112e-06   -796.61757            0   -796.61756    13859.602 
    2302 2.8640214e-06   -796.61757            0   -796.61757    13859.595 
    2303 3.1113309e-06   -796.61757            0   -796.61757    13859.587 
    2304 3.3652852e-06   -796.61757            0   -796.61757    13859.579 
    2305 3.625314e-06   -796.61758            0   -796.61758     13859.57 
    2306 3.8908339e-06   -796.61758            0   -796.61758    13859.561 
    2307 4.1612474e-06   -796.61758            0   -796.61758    13859.552 
    2308 4.4359496e-06   -796.61758            0   -796.61758    13859.543 
    2309 4.7143183e-06   -796.61759            0   -796.61759    13859.533 
    2310 4.9957413e-06   -796.61759            0   -796.61759    13859.524 
    2311 5.2795554e-06   -796.61759            0   -796.61759    13859.513 
    2312 5.5652113e-06    -796.6176            0    -796.6176    13859.503 
    2313 5.8518284e-06    -796.6176            0    -796.6176    13859.492 
    2314 6.1395887e-06    -796.6176            0    -796.6176    13859.482 
    2315 6.4262194e-06   -796.61761            0   -796.61761     13859.47 
    2316 6.7294974e-06   -796.61761            0   -796.61761    13859.461 
    2317 7.1613753e-06   -796.61762            0   -796.61762    13859.443 
    2318 9.801026e-06   -796.61762            0   -796.61762    13859.456 
    2319 1.8634938e-05   -796.61762            0   -796.61762    13859.394 
    2320 1.2939231e-07   -796.61762            0   -796.61762    13859.397 
    2321 2.6214507e-07   -796.61762            0   -796.61762    13859.402 
    2322 3.9045502e-07   -796.61762            0   -796.61762    13859.409 
    2323 4.3869522e-07   -796.61762            0   -796.61762    13859.416 
    2324 3.5123616e-07   -796.61762            0   -796.61762    13859.421 
    2325 2.3202704e-07   -796.61762            0   -796.61762    13859.423 
    2326 2.1005992e-07   -796.61762            0   -796.61762    13859.423 
    2327 2.4974239e-07   -796.61762            0   -796.61762    13859.421 
    2328 3.0578772e-07   -796.61762            0   -796.61762    13859.419 
    2329 3.6817724e-07   -796.61763            0   -796.61763    13859.417 
    2330 4.3599522e-07   -796.61763            0   -796.61763    13859.414 
    2331 5.0907253e-07   -796.61763            0   -796.61763    13859.411 
    2332 5.8725798e-07   -796.61763            0   -796.61763    13859.408 
    2333 6.7038919e-07   -796.61763            0   -796.61763    13859.405 
    2334 7.5829298e-07   -796.61763            0   -796.61763    13859.401 
    2335 8.507858e-07   -796.61763            0   -796.61763    13859.397 
    2336 9.4767415e-07   -796.61763            0   -796.61763    13859.393 
    2337 1.048755e-06   -796.61763            0   -796.61763    13859.389 
    2338 1.1538164e-06   -796.61764            0   -796.61764    13859.385 
    2339 1.2626378e-06   -796.61764            0   -796.61764     13859.38 
    2340 1.3749905e-06   -796.61764            0   -796.61764    13859.375 
    2341 1.4906386e-06   -796.61764            0   -796.61764     13859.37 
    2342 1.6093392e-06   -796.61764            0   -796.61764    13859.365 
    2343 1.730843e-06   -796.61764            0   -796.61764     13859.36 
    2344 1.854895e-06   -796.61764            0   -796.61764    13859.354 
    2345 1.9812351e-06   -796.61765            0   -796.61765    13859.348 
    2346 2.1095985e-06   -796.61765            0   -796.61765    13859.342 
    2347 2.2397167e-06   -796.61765            0   -796.61765    13859.336 
    2348 2.3713179e-06   -796.61765            0   -796.61765     13859.33 
    2349 2.5041274e-06   -796.61765            0   -796.61765    13859.324 
    2350  2.63787e-06   -796.61766            0   -796.61766    13859.317 
    2351 2.7722639e-06   -796.61766            0   -796.61766     13859.31 
    2352 2.9070439e-06   -796.61766            0   -796.61766    13859.303 
    2353  3.04189e-06   -796.61766            0   -796.61766    13859.296 
    2354 3.1766784e-06   -796.61766            0   -796.61766    13859.289 
    2355 3.3107535e-06   -796.61767            0   -796.61767    13859.282 
    2356 3.4480048e-06   -796.61767            0   -796.61767    13859.275 
    2357 3.6191287e-06   -796.61767            0   -796.61767    13859.265 
    2358 4.5496283e-06   -796.61767            0   -796.61767    13859.271 
    2359 8.9112712e-06   -796.61767            0   -796.61767    13859.231 
    2360 6.5442683e-09   -796.61767            0   -796.61767    13859.231 
    2361 3.7129532e-08   -796.61767            0   -796.61767    13859.232 
    2362 9.0398887e-08   -796.61767            0   -796.61767    13859.235 
    2363 1.5451914e-07   -796.61767            0   -796.61767    13859.239 
    2364 2.0556612e-07   -796.61767            0   -796.61767    13859.244 
    2365 2.0577078e-07   -796.61767            0   -796.61767    13859.248 
    2366 1.4339304e-07   -796.61767            0   -796.61767    13859.251 
    2367 9.5059127e-08   -796.61767            0   -796.61767    13859.252 
    2368 9.7406549e-08   -796.61767            0   -796.61767    13859.251 
    2369 1.1838725e-07   -796.61767            0   -796.61767     13859.25 
    2370 1.4355242e-07   -796.61768            0   -796.61768    13859.249 
    2371 1.7109113e-07   -796.61768            0   -796.61768    13859.247 
    2372 2.0087527e-07   -796.61768            0   -796.61768    13859.245 
    2373 2.3284577e-07   -796.61768            0   -796.61768    13859.244 
    2374 2.6694101e-07   -796.61768            0   -796.61768    13859.242 
    2375 3.0309487e-07   -796.61768            0   -796.61768     13859.24 
    2376 3.4123716e-07   -796.61768            0   -796.61768    13859.238 
    2377 3.8129366e-07   -796.61768            0   -796.61768    13859.235 
    2378 4.2318634e-07   -796.61768            0   -796.61768    13859.233 
    2379 4.6683348e-07   -796.61768            0   -796.61768     13859.23 
    2380 5.1214991e-07   -796.61768            0   -796.61768    13859.228 
    2381 5.5904716e-07   -796.61768            0   -796.61768    13859.225 
    2382 6.074337e-07   -796.61768            0   -796.61768    13859.222 
    2383 6.5721509e-07   -796.61768            0   -796.61768    13859.219 
    2384 7.0829424e-07   -796.61768            0   -796.61768    13859.216 
    2385 7.6057161e-07   -796.61768            0   -796.61768    13859.213 
    2386 8.1394545e-07   -796.61769            0   -796.61769    13859.209 
    2387 8.6831193e-07   -796.61769            0   -796.61769    13859.206 
    2388 9.2356573e-07   -796.61769            0   -796.61769    13859.202 
    2389 9.7959929e-07   -796.61769            0   -796.61769    13859.199 
    2390 1.0363056e-06   -796.61769            0   -796.61769    13859.195 
    2391 1.0935718e-06   -796.61769            0   -796.61769    13859.191 
    2392 1.1512982e-06   -796.61769            0   -796.61769    13859.187 
    2393 1.2093484e-06   -796.61769            0   -796.61769    13859.183 
    2394 1.2677532e-06   -796.61769            0   -796.61769     13859.18 
    2395 1.3266684e-06   -796.61769            0   -796.61769    13859.175 
    2396 1.3948229e-06    -796.6177            0    -796.6177    13859.172 
    2397 1.5802429e-06    -796.6177            0    -796.6177    13859.163 
    2398 3.0578368e-06    -796.6177            0    -796.6177    13859.178 
    2399 1.4308858e-06    -796.6177            0    -796.6177    13859.162 
    2400 7.7042735e-08    -796.6177            0    -796.6177    13859.162 
    2401 8.6174855e-08    -796.6177            0    -796.6177    13859.161 
    2402 1.0099132e-07    -796.6177            0    -796.6177    13859.159 
    2403 1.1691053e-07    -796.6177            0    -796.6177    13859.158 
    2404 1.3388612e-07    -796.6177            0    -796.6177    13859.157 
    2405 1.5188314e-07    -796.6177            0    -796.6177    13859.156 
    2406 1.7086974e-07    -796.6177            0    -796.6177    13859.154 
    2407 1.9081019e-07    -796.6177            0    -796.6177    13859.153 
    2408 2.1166832e-07    -796.6177            0    -796.6177    13859.151 
    2409 2.3340513e-07    -796.6177            0    -796.6177     13859.15 
    2410  2.55981e-07    -796.6177            0    -796.6177    13859.148 
    2411 2.7935369e-07    -796.6177            0    -796.6177    13859.146 
    2412 3.0348075e-07    -796.6177            0    -796.6177    13859.144 
    2413 3.2831664e-07    -796.6177            0    -796.6177    13859.142 
    2414 3.5381714e-07    -796.6177            0    -796.6177     13859.14 
    2415 3.7993263e-07    -796.6177            0    -796.6177    13859.138 
    2416 4.0662016e-07    -796.6177            0    -796.6177    13859.136 
    2417 4.3382255e-07    -796.6177            0    -796.6177    13859.134 
    2418 4.615176e-07   -796.61771            0   -796.61771    13859.132 
    2419 4.8966115e-07   -796.61771            0   -796.61771    13859.129 
    2420 5.1866598e-07   -796.61771            0   -796.61771    13859.127 
    2421 5.5106704e-07   -796.61771            0   -796.61771    13859.124 
    2422 6.1204854e-07   -796.61771            0   -796.61771    13859.124 
    2423 8.9893432e-07   -796.61771            0   -796.61771    13859.114 
    2424 1.6416225e-06   -796.61771            0   -796.61771    13859.128 
    2425 2.4747207e-07   -796.61771            0   -796.61771    13859.122 
    2426 8.6346395e-08   -796.61771            0   -796.61771    13859.118 
    2427 3.7736306e-08   -796.61771            0   -796.61771    13859.117 
    2428 4.3746105e-08   -796.61771            0   -796.61771    13859.116 
    2429 5.1906037e-08   -796.61771            0   -796.61771    13859.115 
    2430 6.0716503e-08   -796.61771            0   -796.61771    13859.115 
    2431 7.0161662e-08   -796.61771            0   -796.61771    13859.114 
    2432 8.0224845e-08   -796.61771            0   -796.61771    13859.113 
    2433 9.0888305e-08   -796.61771            0   -796.61771    13859.112 
    2434 1.0213317e-07   -796.61771            0   -796.61771    13859.111 
    2435 1.1393952e-07   -796.61771            0   -796.61771     13859.11 
    2436 1.262864e-07   -796.61771            0   -796.61771    13859.109 
    2437 1.3915187e-07   -796.61771            0   -796.61771    13859.108 
    2438 1.5251306e-07   -796.61771            0   -796.61771    13859.107 
    2439 1.6634622e-07   -796.61771            0   -796.61771    13859.105 
    2440 1.8062675e-07   -796.61771            0   -796.61771    13859.104 
    2441 1.9532925e-07   -796.61771            0   -796.61771    13859.103 
    2442 2.1042759e-07   -796.61771            0   -796.61771    13859.101 
    2443 2.2589497e-07   -796.61771            0   -796.61771      13859.1 
    2444 2.4170393e-07   -796.61771            0   -796.61771    13859.098 
    2445 2.5782646e-07   -796.61771            0   -796.61771    13859.097 
    2446 2.7423404e-07   -796.61771            0   -796.61771    13859.095 
    2447 2.9089766e-07   -796.61771            0   -796.61771    13859.093 
    2448 3.0778831e-07   -796.61771            0   -796.61771    13859.092 
    2449 3.2487691e-07   -796.61771            0   -796.61771     13859.09 
    2450 3.4214966e-07   -796.61771            0   -796.61771    13859.088 
    2451 3.5969358e-07   -796.61771            0   -796.61771    13859.087 
    2452 3.7894145e-07   -796.61772            0   -796.61772    13859.084 
    2453 4.1663421e-07   -796.61772            0   -796.61772    13859.084 
    2454 6.6290433e-07   -796.61772            0   -796.61772    13859.075 
    2455 1.1657378e-06   -796.61772            0   -796.61772    13859.088 
    2456 3.0471315e-08   -796.61772            0   -796.61772    13859.086 
    2457 3.5682616e-08   -796.61772            0   -796.61772    13859.084 
    2458 2.957189e-08   -796.61772            0   -796.61772    13859.081 
    2459 1.7932046e-08   -796.61772            0   -796.61772     13859.08 
    2460 1.3524014e-08   -796.61772            0   -796.61772    13859.079 
    2461 1.5261009e-08   -796.61772            0   -796.61772    13859.079 
    2462 1.8676252e-08   -796.61772            0   -796.61772    13859.078 
    2463 2.2559418e-08   -796.61772            0   -796.61772    13859.078 
    2464 2.6793023e-08   -796.61772            0   -796.61772    13859.077 
    2465 3.136705e-08   -796.61772            0   -796.61772    13859.077 
    2466 3.6273788e-08   -796.61772            0   -796.61772    13859.076 
    2467 4.1504952e-08   -796.61772            0   -796.61772    13859.076 
    2468 4.7051681e-08   -796.61772            0   -796.61772    13859.075 
    2469 5.2904556e-08   -796.61772            0   -796.61772    13859.074 
    2470 5.9053613e-08   -796.61772            0   -796.61772    13859.074 
    2471 6.5488374e-08   -796.61772            0   -796.61772    13859.073 
    2472 7.2197855e-08   -796.61772            0   -796.61772    13859.072 
    2473 7.9170595e-08   -796.61772            0   -796.61772    13859.072 
    2474 8.6394675e-08   -796.61772            0   -796.61772    13859.071 
    2475 9.3857745e-08   -796.61772            0   -796.61772     13859.07 
    2476 1.0154704e-07   -796.61772            0   -796.61772    13859.069 
    2477 1.0944942e-07   -796.61772            0   -796.61772    13859.068 
    2478 1.1755137e-07   -796.61772            0   -796.61772    13859.067 
    2479 1.2583906e-07   -796.61772            0   -796.61772    13859.066 
    2480 1.3429835e-07   -796.61772            0   -796.61772    13859.065 
    2481 1.429148e-07   -796.61772            0   -796.61772    13859.064 
    2482 1.5167375e-07   -796.61772            0   -796.61772    13859.063 
    2483 1.6056032e-07   -796.61772            0   -796.61772    13859.062 
    2484 1.6955936e-07   -796.61772            0   -796.61772    13859.061 
    2485 1.7865584e-07   -796.61772            0   -796.61772     13859.06 
    2486 1.8783394e-07   -796.61772            0   -796.61772    13859.058 
    2487 1.970826e-07   -796.61772            0   -796.61772    13859.057 
    2488 2.064044e-07   -796.61772            0   -796.61772    13859.056 
    2489 2.1617136e-07   -796.61772            0   -796.61772    13859.054 
    2490 2.3137383e-07   -796.61772            0   -796.61772    13859.054 
    2491  3.27498e-07   -796.61772            0   -796.61772    13859.048 
    2492 7.1144583e-07   -796.61772            0   -796.61772    13859.059 
    2493  3.46692e-09   -796.61772            0   -796.61772    13859.058 
Loop time of 357.296 on 16 procs for 653 steps with 127 atoms

99.0% CPU use with 16 MPI tasks x no OpenMP threads

Minimization stats:
  Stopping criterion = energy tolerance
  Energy initial, next-to-last, final = 
        -796.584301987      -796.61772071     -796.617720713
  Force two-norm initial, final = 1.12919e-06 0.000175421
  Force max component initial, final = 9.07745e-07 4.06417e-05
  Final line search alpha, max atom move = 0 0
  Iterations, force evaluations = 653 653

MPI task timing breakdown:
Section |  min time  |  avg time  |  max time  |%varavg| %total
---------------------------------------------------------------
Pair    | 138.94     | 159.67     | 167.7      |  50.6 | 44.69
Neigh   | 0          | 0          | 0          |   0.0 |  0.00
Comm    | 0.27196    | 8.303      | 29.033     | 221.7 |  2.32
Output  | 0.1017     | 0.10246    | 0.10364    |   0.1 |  0.03
Modify  | 59.329     | 59.329     | 59.329     |   0.0 | 16.60
Other   |            | 129.9      |            |       | 36.35

Nlocal:    7.9375 ave 8 max 7 min
Histogram: 1 0 0 0 0 0 0 0 0 15
Nghost:    819.812 ave 824 max 816 min
Histogram: 4 0 0 0 0 8 0 1 1 2
Neighs:    0 ave 0 max 0 min
Histogram: 16 0 0 0 0 0 0 0 0 0
FullNghs:  1600.88 ave 1622 max 1414 min
Histogram: 1 0 0 0 0 0 0 0 1 14

Total # of neighbors = 25614
Ave neighs/atom = 201.685
Neighbor list builds = 0
Dangerous builds = 0
Total wall time: 0:22:55
