# LAMMPS data file written by OVITO Pro 3.6.0
127 atoms
3 atom types
0.0 10.0025 xlo xhi
0.0 12.353714 ylo yhi
0.0 10.615024 zlo zhi

Masses

1 7.01
2 30.974
3 32.066

Atoms  # atomic

22 3 1.4899623975 0.3252078149 1.0979225473
16 2 0.979248751 1.5988917882 1.8532558101
28 3 1.4452312175 1.518296158 3.3164944084
2 1 1.014513565 0.1221762549 4.5585477516
31 3 1.5396148075 2.8870753155 1.1628334191
7 1 3.5185294125 0.1239621078 1.1551906018
3 1 3.1946684675 1.904374428 3.9232279502
32 3 4.44779167 1.6743112121 1.8497316221
25 3 1.58147527 0.351379158 6.4411328731
11 1 1.598099425 0.0579229824 9.8164875896
30 3 1.702845605 2.8963900159 6.5297577084
15 2 1.0969641725 1.6436369403 7.1803737594
17 3 1.555328735 1.5857597902 8.6760731011
12 1 3.5769040025 0.1090811945 6.4059122234
5 1 3.5859262575 1.6494308321 8.9201231179
23 3 4.5095571075 1.6445387614 7.1806815951
8 1 1.030237495 4.6351011391 2.0948006812
27 3 2.0312576875 4.8217781113 3.7244297807
9 1 3.5471965775 3.2252952974 1.1378244226
18 3 4.102965485 3.5560659898 4.514930618
21 3 4.102125275 4.770090172 2.270277643
13 2 3.56597127 4.8088190654 3.7443860259
20 3 4.08718154 6.1044271748 4.4589363664
10 1 1.58443601 3.1718778381 9.8242577871
4 1 1.5975892975 4.7042572301 7.2481188426
29 3 0.7014143098 4.7351909299 9.0261247476
6 1 3.625806225 3.2315215693 6.4059865286
19 3 3.6077717175 3.4825613915 9.7735392024
26 3 3.64759167 4.7856929127 7.58308654
14 2 4.142455355 4.756785222 9.0549339227
24 3 3.632007775 6.0288224451 9.7951089312
54 3 1.5233707475 6.5461095115 1.1571649963
48 2 0.9967791325 7.8210622111 1.8816722294
60 3 1.486231465 7.8243606528 3.3626485328
34 1 1.02781689 6.2268277731 4.5315325156
63 3 1.53070258 9.1046378031 1.1654977901
39 1 3.541065045 6.2709923007 1.1279736803
35 1 3.52344064 7.8426070883 3.6229183062
64 3 4.45119252 7.8483639191 1.8479376831
57 3 1.5732032025 6.5521010628 6.4165272474
43 1 1.5982894725 6.2658531557 9.8282914962
62 3 1.570212455 9.0961508016 6.424722046
47 2 1.054283505 7.8190979706 7.1565748756
49 3 1.56867207 7.8186285295 8.6258215775
44 1 3.5836256825 6.3049526605 6.3529857138
37 1 3.6073516125 7.8230388054 8.9069498731
55 3 4.4976541325 7.8368996725 7.1581883593
33 1 1.0303075125 9.3473512221 4.534812558
40 1 1.0438909075 10.9216097046 2.0060484656
59 3 1.9504875 10.8988294559 3.7913044319
41 1 3.54324559 9.4102192726 1.1217426612
50 3 4.03960965 9.627817591 4.4749544376
53 3 4.0193145775 10.9326786323 2.2946709681
45 2 3.508416885 10.9231539188 3.772314154
52 3 4.02472593 12.1868400313 4.5216605432
42 1 1.5958888725 9.358024831 9.8310620175
36 1 1.5864665175 10.9101948728 7.2965764272
61 3 0.6878769263 10.8830908243 9.0378861942
38 1 3.573313105 9.3654741205 6.3688657897
51 3 3.626126305 9.6310295567 9.7837402405
58 3 3.6114926475 10.9024367404 7.5872900895
46 2 4.1383643325 10.9073411649 9.0512292793
56 3 3.629447135 12.1759317018 9.7924657902
86 3 6.5225402275 0.3731797571 1.1509233622
80 2 5.9998295825 1.6599191353 1.877521755
92 3 6.529772035 1.6538164006 3.3426073675
66 1 6.0184342325 0.1555900863 4.516713942
95 3 6.5455059675 2.9320551882 1.1456901553
71 1 8.5299219475 0.0789261492 1.0953006364
67 1 8.626816165 1.6836876811 3.6292448605
96 3 9.4218248675 1.6347422662 1.7913277601
89 3 6.582265155 0.3859955 6.4213570833
75 1 6.5915174675 0.1078086384 9.8260198811
94 3 6.56836168 2.9346371144 6.4403579763
79 2 6.067856585 1.6548664663 7.1693447495
81 3 6.6008197925 1.6456505957 8.6315112304
76 1 8.5986391225 0.1341440388 6.3695663812
69 1 8.650101985 1.6483189979 8.8959208632
87 3 9.5357933525 1.6687273334 7.1396757574
65 1 6.1027253 3.2118421029 4.5051117208
72 1 6.06067479 4.75617989 1.9516889277
91 3 6.90916686 4.8324270128 3.703772944
73 1 8.54809649 3.2098284475 1.1018288762
82 3 8.8513822925 3.4491198877 4.4664730335
85 3 9.016553575 4.7349685631 2.2635901779
77 2 8.4694068225 4.7436161629 3.731616152
84 3 9.0267061125 6.0167034517 4.4582357748
74 1 6.6122826575 3.1888394874 9.8238862613
68 1 6.5874364475 4.7374887207 7.3020750096
93 3 5.7033754875 4.742788464 9.0748052476
70 1 8.6336478725 3.1930150427 6.3405342906
83 3 8.6301069875 3.4682063758 9.764505817
90 3 8.61647358 4.7425043286 7.5642767174
78 2 9.145625835 4.738687031 9.0261990528
88 3 8.6314073125 6.0131085209 9.7629241784
118 3 6.550777285 6.5916329476 1.1379305728
112 2 6.0095720175 7.858432196 1.8689872757
124 3 6.5209998425 7.8658197169 3.3422783017
98 1 6.049692045 6.3430020996 4.5173933036
127 3 6.5240406025 9.1449109108 1.1497769396
103 1 8.5661910125 6.2580826696 1.1027629983
99 1 8.541874935 7.8177884769 3.6200947098
1 3 9.43967933 7.8310563657 1.8442436547
121 3 6.5729528275 6.560600418 6.4236711586
107 1 6.60829166 6.2896217014 9.8237270359
126 3 6.5699720825 9.1054778557 6.4217922993
111 2 6.0552434325 7.8322670297 7.1606722749
113 3 6.57592357 7.8299321778 8.6261612583
108 1 8.580524595 6.2783674679 6.3540896763
101 1 8.6115823575 7.8191473854 8.8924922104
119 3 9.497353745 7.8230758665 7.1437625417
97 1 6.03442823 9.3719598204 4.529059215
104 1 6.033848085 10.9464653771 1.9972379956
123 3 6.95109734 10.9239692639 3.7746813044
105 1 8.54481567 9.3940235536 1.1010645944
114 3 9.0285865825 9.6253221408 4.4647109395
117 3 9.0168436475 10.9118996853 2.2699910373
109 2 8.508866685 10.9138886333 3.7472839274
116 3 9.0408896575 12.1817503011 4.4789350716
106 1 6.5953584275 9.3737634626 9.8209034395
100 1 6.5907972875 10.9272182907 7.2874475065
125 3 5.6978541075 10.9090089163 9.0418774432
102 1 8.5751132425 9.359927303 6.3610106719
115 3 8.61031204 9.6275211019 9.7583809482
122 3 8.6196443725 10.9088112568 7.5574194119
110 2 9.132262495 10.8997683382 9.0268571842
120 3 8.61539331 12.1706072511 9.7604508779
