# LAMMPS data file written by OVITO Pro 3.6.0
127 atoms
3 atom types
0.0 10.0025 xlo xhi
0.0 12.353714 ylo yhi
0.0 10.615024 zlo zhi

Masses

1 7.01
2 30.974
3 32.066

Atoms  # atomic

22 3 1.5169291375 0.3491122515 1.1496070992
16 2 0.9629666815 1.6238586442 1.8677771629
28 3 1.3290621825 1.5951486128 3.3604406078
2 1 1.104135965 0.1030877901 4.5308000789
31 3 1.531922885 2.908867267 1.1772698517
7 1 3.5307924775 0.110915721 1.1965891954
3 1 1.47032749 3.0652158714 4.5148881579
32 3 4.5173990675 1.6458853162 1.7042845633
25 3 1.584856115 0.3591496442 6.4390523284
11 1 1.6027505875 0.080309271 9.8324844307
30 3 1.644631055 2.9008991215 6.4495930472
15 2 1.0850211875 1.6388931141 7.1724974116
17 3 1.5800849225 1.6323209382 8.6487818744
12 1 3.595278595 0.1202073199 6.3638236533
5 1 3.6233156025 1.6401531929 8.9505776218
23 3 4.525271035 1.6308879074 7.198748366
8 1 1.054723615 4.7026388935 2.0235844852
27 3 2.01622393 4.7649510269 3.759034759
9 1 3.542425385 3.1830085344 1.1908783125
18 3 4.1240807625 3.6341167548 4.591868312
21 3 4.0897321775 4.7622579173 2.2859878785
13 2 3.5797247075 4.8114627602 3.7640875104
20 3 4.04633133 6.1495429383 4.4291612241
10 1 1.5984695175 3.1875423474 9.842770389
4 1 1.619624805 4.720329412 7.2866726098
29 3 0.7091192355 4.7365127773 9.0253180058
6 1 3.65659392 3.1795124333 6.3965816173
19 3 3.6092320825 3.4843897411 9.7940792739
26 3 3.633608175 4.7531779375 7.5850078593
14 2 4.14191522 4.744777412 9.0549445377
24 3 3.63486849 6.0273894143 9.7799082168
54 3 1.5392747225 6.5312232861 1.1564750197
48 2 1.004671105 7.8119575239 1.8708661349
60 3 1.48569133 7.8076460777 3.3528190205
34 1 1.0435908325 6.2676815053 4.5321057268
63 3 1.548366995 9.09112284 1.1591818508
39 1 3.5661213075 6.2559084159 1.1074017638
35 1 3.51655892 7.8211857483 3.5749808578
64 3 4.4685868675 7.8249042162 1.8209542921
57 3 1.5776043025 6.5418227727 6.4217073791
43 1 1.6079918975 6.268731571 9.8227716838
62 3 1.57843451 9.0877502761 6.4239471492
47 2 1.05914472 7.8147124021 7.1570313217
49 3 1.56955229 7.8147247558 8.6269573851
44 1 3.59509855 6.295946803 6.3494933709
37 1 3.61246289 7.8226681939 8.9006127038
55 3 4.502825425 7.8261025264 7.1611924111
33 1 1.0587146125 9.3399019326 4.5320314217
40 1 1.0771792275 10.9122950042 2.0143812594
59 3 1.996879095 10.88154661 3.7890434318
41 1 3.56833186 9.3951600953 1.1083040408
50 3 4.02632633 9.4885541731 4.4285455527
53 3 4.05805426 10.8904412841 2.2953927898
45 2 3.5599597675 10.8384692093 3.7797234408
52 3 4.15151762 11.9905395158 4.6055510779
42 1 1.60984236 9.3611626744 9.8245550078
36 1 1.6061714425 10.9041168455 7.2924471828
61 3 0.7043770503 10.8899594893 9.033364194
38 1 3.5906274325 9.3567400447 6.3500878122
51 3 3.634888495 9.6192070524 9.7747811603
58 3 3.61214281 10.9020290679 7.5838295916
46 2 4.136733925 10.9040180158 9.0474609458
56 3 3.614843485 12.1610454765 9.7989303399
86 3 6.60657123 0.3533285741 1.1384082489
80 2 6.04859177 1.6446746522 1.8356242552
92 3 6.5442056425 1.6449093728 3.3180229719
66 1 6.0271764175 0.1421764237 4.5039652982
95 3 6.609471955 2.933315267 1.1364444694
71 1 8.5632102675 0.0593303175 1.0806306732
67 1 8.62423552 1.6567195234 3.5956376945
96 3 9.409131695 1.6369659347 1.7420103586
89 3 6.6042606525 0.382306681 6.420741412
75 1 6.610832295 0.1017185045 9.8212749654
94 3 6.57624365 2.9239882129 6.4267176705
79 2 6.0825902675 1.6454282288 7.1688458434
81 3 6.6218450475 1.6471330413 8.6291653101
76 1 8.6051007375 0.1179107645 6.3588664371
69 1 8.6409496975 1.6465894779 8.9043385772
87 3 9.52934174 1.6635017124 7.1473928799
65 1 6.03014716 3.1574857613 4.4941888611
72 1 6.0839306025 4.7203047045 1.9692143323
91 3 6.966361155 4.7589100608 3.7480482091
73 1 8.5659909625 3.2184760473 1.0834436546
82 3 9.0272862575 3.4572609852 4.4638511225
85 3 9.043840395 4.7402806601 2.2606816613
77 2 8.5256208725 4.7324854665 3.7376136405
84 3 9.05126225 6.0205578105 4.4575245682
74 1 6.6195244675 3.1885306445 9.8228035288
68 1 6.583305415 4.7299653089 7.2889973
93 3 5.7030354025 4.7349191482 9.0607509559
70 1 8.600449575 3.1843180281 6.3425299151
83 3 8.641379805 3.4682187295 9.7506213656
90 3 8.6276863825 4.7417878132 7.5524940408
78 2 9.1522374875 4.7393047167 9.0165181509
88 3 8.6375088375 6.012070809 9.7536254174
118 3 6.5623501775 6.5571907929 1.136253399
112 2 6.0253559625 7.8323040909 1.8587756226
124 3 6.5365037175 7.8335888771 3.332247104
98 1 6.04875181 6.31369909 4.5104192328
127 3 6.5498670575 9.1152619972 1.1407753992
103 1 8.5634903375 6.2510039914 1.092041824
99 1 8.5536078675 7.8153795027 3.6112736249
1 3 9.4498718775 7.8189003112 1.8245103251
121 3 6.573062855 6.5524222593 6.4151260643
107 1 6.610992335 6.2794175336 9.8151500965
126 3 6.57332292 9.0971638062 6.4137673412
111 2 6.0595245025 7.8253118887 7.1553223028
113 3 6.5874164425 7.8242371156 8.6188050467
108 1 8.5805145925 6.2806405513 6.350459338
101 1 8.6171637525 7.8208151368 8.8884372713
119 3 9.5028651225 7.8167384112 7.1394209968
97 1 6.03518842 9.3516132534 4.5140814161
104 1 6.06623618 10.9396090658 1.9900091643
123 3 6.985525945 10.9037215267 3.7650216325
105 1 8.5591692575 9.3893785571 1.0929759462
114 3 9.0585540725 9.6075327927 4.4592548171
117 3 9.0557733775 10.896062224 2.2655539573
109 2 8.5416048675 10.8980141108 3.741806575
116 3 9.0764585475 12.1647762981 4.4737443249
106 1 6.6018200425 9.3739981832 9.8131226269
100 1 6.585646 10.9241175085 7.2767051022
125 3 5.6981141725 10.912863275 9.0398712037
102 1 8.5818949375 9.3551340619 6.3529114086
115 3 8.6257859075 9.6288058882 9.7539332531
122 3 8.632617615 10.8993112508 7.5498827449
110 2 9.148066445 10.8984959057 9.0176327284
120 3 8.636978705 12.1726579676 9.7458870649
