# LAMMPS data file written by OVITO Pro 3.6.0
127 atoms
3 atom types
0.0 10.0025 xlo xhi
0.0 12.353714 ylo yhi
0.0 10.615024 zlo zhi

Masses

1 7.01
2 30.974
3 32.066

Atoms  # atomic

22 3 1.5174492675 0.3725596007 1.1792548612
16 2 0.9421444773 1.6504561904 1.877075924
28 3 1.26619647 1.6504561904 3.3798554867
2 1 1.111177725 0.1350557429 4.5318828113
31 3 1.5174492675 2.928349074 1.1792548612
7 1 3.5279317625 0.1194979697 1.2039984822
32 3 4.51344808 1.6504561904 1.7233916065
25 3 1.5735933 0.3772379522 6.4452515024
11 1 1.58983736 0.1004481721 9.8474091545
30 3 1.5735933 2.9236670164 6.4452515024
15 2 1.05510371 1.6504561904 7.1777730786
17 3 1.5634007525 1.6504561904 8.6501936726
12 1 3.5855461625 0.131097613 6.3595457986
5 1 3.6123928725 1.6504561904 8.9406631894
23 3 4.509026975 1.6504561904 7.1823056938
8 1 1.073488305 4.7259132907 2.0223000673
27 3 1.995078645 4.7539809289 3.7933212865
9 1 3.5279317625 3.1814149053 1.2039984822
18 3 4.1556886625 3.6606401788 4.6064002798
21 3 4.0553435825 4.762010843 2.2961889166
13 2 3.558069295 4.8095602882 3.7811033939
20 3 4.017024005 6.1618225301 4.4297875105
3 1 1.111177725 3.1658492256 4.5318828113
10 1 1.58983736 3.2004643323 9.8474091545
4 1 1.59675909 4.7336714231 7.298253601
29 3 0.6924000567 4.7475075828 9.0398712037
6 1 3.5855461625 3.1698147678 6.3595457986
19 3 3.60218032 3.48435268 9.8019237766
26 3 3.6048109775 4.7414542629 7.5852944649
14 2 4.12479094 4.7422325469 9.0507197582
24 3 3.620804975 6.0273647069 9.7754711368
54 3 1.5403950025 6.5471966383 1.1611562453
48 2 1.00037003 7.8273131904 1.8728405294
60 3 1.4810401675 7.8273131904 3.3546129596
34 1 1.0567941325 6.2971451132 4.5387825769
63 3 1.5403950025 9.1074297425 1.1611562453
39 1 3.5623203575 6.2554142673 1.1081342004
35 1 3.5093871275 7.8273131904 3.5718812708
64 3 4.46239532 7.8273131904 1.8194894188
57 3 1.5679919 6.5542629627 6.4323754783
43 1 1.599059665 6.2788245554 9.8274316793
62 3 1.5679919 9.1003634181 6.4323754783
47 2 1.04814197 7.8273131904 7.1652685803
49 3 1.5558988775 7.8273131904 8.6359695405
44 1 3.5818052275 6.2925865928 6.3533147795
37 1 3.6000097775 7.8273131904 8.9023641828
55 3 4.490982465 7.8273131904 7.1632729558
33 1 1.0567941325 9.3574689139 4.5387825769
40 1 1.073488305 10.9287130901 2.0223000673
59 3 1.995078645 10.9006454519 3.7933212865
41 1 3.5623203575 9.3991997598 1.1081342004
50 3 4.017024005 9.4928038507 4.4297875105
53 3 4.0553435825 10.8926031841 2.2961889166
45 2 3.558069295 10.8450660926 3.7811033939
52 3 4.1556886625 11.993986202 4.6064002798
42 1 1.599059665 9.3758018254 9.8274316793
36 1 1.59675909 10.9209549577 7.298253601
61 3 0.6924000567 10.907118798 9.0398712037
38 1 3.5818052275 9.3620274343 6.3533147795
51 3 3.620804975 9.6272616739 9.7754711368
58 3 3.6048109775 10.9131597642 7.5852944649
46 2 4.12479094 10.9123938339 9.0507197582
56 3 3.60218032 12.1702737008 9.8019237766
86 3 6.5990793575 0.3594238966 1.1446074229
80 2 6.04507089 1.6504561904 1.8453582323
92 3 6.5506672575 1.6504561904 3.3251881131
66 1 6.0290568875 0.143581041 4.5088588243
95 3 6.5990793575 2.941481072 1.1446074229
71 1 8.5536478775 0.0641544428 1.0786881239
67 1 8.617933945 1.6504561904 3.5831225812
96 3 9.38978686 1.6504561904 1.7212261416
89 3 6.5855759825 0.3808267061 6.4292971213
75 1 6.59360799 0.1063983384 9.8268160079
94 3 6.5855759825 2.9200844393 6.4292971213
79 2 6.066616275 1.6504561904 7.1692916744
81 3 6.590827295 1.6504561904 8.6356086296
76 1 8.58474565 0.1149369785 6.3620934044
69 1 8.61191244 1.6504561904 8.9139239439
87 3 9.49841401 1.6504561904 7.1620097679
65 1 6.0290568875 3.157325163 4.5088588243
72 1 6.063615525 4.7157338304 1.9916969531
91 3 6.9816349725 4.7516584307 3.7659982147
73 1 8.5536478775 3.236759544 1.0786881239
82 3 9.067886405 3.4825613915 4.4759734799
85 3 9.0518724025 4.7505095353 2.2671462109
77 2 8.5378839375 4.7510778061 3.7436217441
84 3 9.0572137375 6.0402249232 4.4611761365
74 1 6.59360799 3.1945098421 9.8268160079
68 1 6.5691518775 4.7295576363 7.2827556659
93 3 5.68618119 4.737649319 9.048416298
70 1 8.58474565 3.1859734257 6.3620934044
83 3 8.617253775 3.477656967 9.7478508444
90 3 8.6209046875 4.7536967935 7.5528337216
78 2 9.13580338 4.7491012119 9.0203714046
88 3 8.618774155 6.0206813476 9.7572026805
118 3 6.5504271975 6.5471472234 1.1441828219
112 2 6.0189943725 7.8273131904 1.8625439561
124 3 6.527411445 7.8273131904 3.3371300151
98 1 6.026886345 6.3045326342 4.5152809138
127 3 6.5504271975 9.1074668037 1.1441828219
103 1 8.5560684825 6.2588609535 1.0936022326
99 1 8.55009699 7.8273131904 3.613078179
1 3 9.4457508475 7.8273131904 1.8246907805
121 3 6.56172002 6.5551400764 6.4153595948
107 1 6.59340794 6.2785527736 9.816232829
126 3 6.56172002 9.0994863044 6.4153595948
111 2 6.04775156 7.8273131904 7.156734101
113 3 6.5756935125 7.8273131904 8.6203442251
108 1 8.571642375 6.293525475 6.3544718171
101 1 8.6043205425 7.8273131904 8.8919614592
119 3 9.4920224125 7.8273131904 7.1450469596
97 1 6.026886345 9.3500937466 4.5152809138
104 1 6.063615525 10.9388925504 1.9916969531
123 3 6.9816349725 10.9029679501 3.7659982147
105 1 8.5560684825 9.3957654273 1.0936022326
114 3 9.0572137375 9.6143891039 4.4611761365
117 3 9.0518724025 10.9041044918 2.2671462109
109 2 8.5378839375 10.9035485747 3.7436217441
116 3 9.067886405 12.1720526356 4.4759734799
106 1 6.59340794 9.3760736072 9.816232829
100 1 6.5691518775 10.9250563908 7.2827556659
125 3 5.68618119 10.9169647081 9.048416298
102 1 8.571642375 9.3611009058 6.3544718171
115 3 8.618774155 9.6339450332 9.7572026805
122 3 8.6209046875 10.9009295873 7.5528337216
110 2 9.13580338 10.9055128152 9.0203714046
120 3 8.617253775 12.1769694138 9.7478508444
