# LAMMPS data file written by OVITO Pro 3.6.0
127 atoms
3 atom types
0.0 10.0025 xlo xhi
0.0 12.353714 ylo yhi
0.0 10.615024 zlo zhi

Masses

1 7.01
2 30.974
3 32.066

Atoms  # atomic

22 3 1.4877618475 0.3254178281 1.0965532092
16 2 0.9637118678 1.5942838528 1.8466214201
28 3 1.3820954375 1.5047811949 3.3228952679
2 1 1.004671105 0.0828238695 4.5488350047
31 3 1.538844615 2.8842216076 1.1728433867
7 1 3.51691901 0.128556454 1.17208972
3 1 2.8408200275 2.1621346706 4.2244611013
32 3 4.46863688 1.6714822116 1.783748633
25 3 1.585056165 0.3380297347 6.4271635015
11 1 1.601140185 0.0631859116 9.8102990306
30 3 1.743815845 2.8665310891 6.46633294
15 2 1.11311821 1.6382630747 7.1579972888
17 3 1.572653065 1.599719487 8.6523060624
12 1 3.58977722 0.096020601 6.40884197
5 1 3.5981293075 1.6470095042 8.9326063861
23 3 4.513988215 1.6391772495 7.189025004
8 1 1.030557575 4.6376336505 2.0926989065
27 3 2.039889845 4.7971695131 3.7317753773
9 1 3.54872696 3.2161164879 1.1523988505
18 3 4.11666891 3.5868267376 4.5428481311
21 3 4.1111775375 4.7758964175 2.2766466574
13 2 3.5774041275 4.8238041204 3.7483135847
20 3 4.0816101475 6.1266885674 4.4543931361
10 1 1.58735674 3.1728784889 9.8286630221
4 1 1.604220955 4.6939418789 7.234584687
29 3 0.7066986305 4.7301629683 9.0132168784
6 1 3.68320057 3.2506080574 6.4451559672
19 3 3.6050510375 3.4879723182 9.7776684468
26 3 3.645011025 4.7934510451 7.5901136858
14 2 4.1429654825 4.7610348996 9.0620035287
24 3 3.6349185025 6.0338504067 9.7999493822
54 3 1.5228306125 6.5391914316 1.1575152921
48 2 0.9966360967 7.8159971884 1.8803028913
60 3 1.4840609225 7.8145765113 3.3616401055
34 1 1.029437295 6.2217751041 4.5304816282
63 3 1.533603305 9.0987944964 1.1656145554
39 1 3.544025785 6.2726353446 1.1271987835
35 1 3.5212700975 7.8474373905 3.6146598176
64 3 4.4542032725 7.8468691197 1.8434156829
57 3 1.57207292 6.5479996297 6.4157205056
43 1 1.5983694925 6.2642224654 9.8256271252
62 3 1.5710026525 9.0922223206 6.4230024121
47 2 1.05446355 7.8163430924 7.1556407535
49 3 1.5693222325 7.8166766426 8.6246539249
44 1 3.5830055275 6.3120189849 6.3540047561
37 1 3.6084318825 7.825299535 8.9087650422
55 3 4.49864438 7.8365043536 7.1618293125
33 1 1.032838145 9.3406060943 4.532636478
40 1 1.048201985 10.9168288172 2.0052311087
59 3 1.9539783725 10.8874269779 3.787801474
41 1 3.54692651 9.4113928755 1.1236002904
50 3 4.0324778675 9.5948084672 4.4651249254
53 3 4.024305825 10.9288860421 2.2999466351
45 2 3.514378375 10.907118798 3.7792669947
52 3 4.0412600625 12.1394388307 4.5560001459
42 1 1.5981694425 9.3577159881 9.8309664823
36 1 1.5912477125 10.9019920067 7.2940818965
61 3 0.6921179863 10.8835232043 9.0338949452
38 1 3.5760637925 9.3632010372 6.3640677988
51 3 3.6288369825 9.627904067 9.7865107618
58 3 3.60986224 10.8962228223 7.5904109065
46 2 4.1381242725 10.9051916186 9.0536176597
56 3 3.62586624 12.1722502951 9.7937289781
86 3 6.54719639 0.3680850855 1.1430151693
80 2 6.0103322075 1.6583255062 1.8578096554
92 3 6.5301621325 1.6524698458 3.3284575405
66 1 6.001920105 0.1605377488 4.5057698523
95 3 6.567941575 2.9362554509 1.1392999109
71 1 8.5292417775 0.0720891097 1.0882204154
67 1 8.6299869575 1.6798209686 3.6171543482
96 3 9.4092417225 1.6335810171 1.7630068761
89 3 6.58772652 0.3877423152 6.4182999564
75 1 6.5962786575 0.1074852182 9.8245974679
94 3 6.5630903625 2.9364778178 6.4388081828
79 2 6.07259777 1.6528898721 7.1690050687
81 3 6.6106622525 1.6463918185 8.6288468594
76 1 8.60062962 0.135641309 6.3660315783
69 1 8.6567536475 1.6497643824 8.8915368583
87 3 9.553527785 1.6820199297 7.1256639257
65 1 6.0968938425 3.199784878 4.4933821193
72 1 6.0699871175 4.7509295616 1.9481116646
91 3 6.910587215 4.8302033443 3.7057579535
73 1 8.5483465525 3.2129662908 1.0949609556
82 3 8.8569636875 3.4471927083 4.4637555873
85 3 9.0186841075 4.7354256505 2.263229267
77 2 8.4705070975 4.7418125206 3.7311172459
84 3 9.0289666775 6.0143933072 4.4582570049
74 1 6.61757398 3.1885182908 9.8233873552
68 1 6.5900771075 4.7400088784 7.3023191552
93 3 5.7036355525 4.743220844 9.0750175481
70 1 8.6245455975 3.1939786324 6.334494342
83 3 8.63723877 3.4670451267 9.7574574411
90 3 8.617653875 4.7421707783 7.5585233744
78 2 9.150226985 4.737389891 9.019246212
88 3 8.638739145 6.0113666473 9.7587843191
118 3 6.554018095 6.5901752093 1.1358500281
112 2 6.0122126775 7.8573697766 1.8665776652
124 3 6.52431067 7.8635342798 3.3394759354
98 1 6.05219267 6.3463993709 4.5160558106
127 3 6.527451455 9.1433666965 1.1473885592
103 1 8.5664310725 6.2564766867 1.1006081484
99 1 8.54249509 7.8167507649 3.6180141651
1 3 9.43991939 7.8286226841 1.8407513118
121 3 6.571702515 6.5599333174 6.4231722524
107 1 6.611512465 6.2896217014 9.8233873552
126 3 6.5700521025 9.1047613403 6.4211553979
111 2 6.05587359 7.8321682 7.1610756458
113 3 6.5792343975 7.8292774309 8.6256941972
108 1 8.58002447 6.2795287171 6.3521046668
101 1 8.6134028125 7.819987438 8.8916536236
119 3 9.497713835 7.8215069448 7.1430831801
97 1 6.0298570875 9.370032641 4.5261506984
104 1 6.035368465 10.9506656399 1.9951362209
123 3 6.95045718 10.9200284292 3.7720700084
105 1 8.54549584 9.3939864925 1.099992477
114 3 9.028836645 9.6209736335 4.463182376
117 3 9.0203445225 10.9095154185 2.2701608777
109 2 8.5070562325 10.9093918814 3.7459888945
116 3 9.038639095 12.175795811 4.4797948886
106 1 6.596508715 9.37508531 9.8200754677
100 1 6.5911973875 10.927205937 7.2842736144
125 3 5.6979941425 10.9099848597 9.040890246
102 1 8.5750332225 9.3586425167 6.3589513572
115 3 8.6133427975 9.6294482813 9.7561305631
122 3 8.6232452725 10.9084282917 7.5531946324
110 2 9.13632351 10.9002007182 9.0224944094
120 3 8.6226051125 12.173288007 9.7524471498
