# LAMMPS data file written by OVITO Pro 3.6.0
127 atoms
3 atom types
0.0 10.0025 xlo xhi
0.0 12.353714 ylo yhi
0.0 10.615024 zlo zhi

Masses

1 7.01
2 30.974
3 32.066

Atoms  # atomic

22 3 1.4889621475 0.3272782974 1.0973917961
16 2 0.962848652 1.5945309271 1.8475130821
28 3 1.3715528025 1.5053618195 3.3259311648
2 1 1.0202249925 0.0711295968 4.5400669948
31 3 1.538324485 2.885716407 1.175603293
7 1 3.51671896 0.1275903936 1.1812504857
3 1 2.538734525 2.4372642351 4.3842596726
32 3 4.4803198 1.6677760974 1.7543131714
25 3 1.5823654925 0.3292771283 6.4245840506
11 1 1.60284061 0.0688290882 9.806934068
30 3 1.75575883 2.8488405707 6.4180027358
15 2 1.1176893525 1.6339763359 7.1455034056
17 3 1.584215955 1.6160387432 8.6355449395
12 1 3.59361818 0.0987431125 6.3967089976
5 1 3.6062913475 1.6449958488 8.9398352175
23 3 4.5182792875 1.6333586502 7.1987271359
8 1 1.031077705 4.6417844984 2.0861706667
27 3 2.0444009725 4.7583170825 3.7448000118
9 1 3.5483368625 3.2092107618 1.1615383862
18 3 4.1218201975 3.5932136078 4.5538877561
21 3 4.11270792 4.7788366015 2.2781646058
13 2 3.587436635 4.8224205045 3.7504790496
20 3 4.0733680875 6.1327665947 4.4504868073
10 1 1.5896273075 3.1755221837 9.8323252054
4 1 1.6089721425 4.6910387561 7.2329393583
29 3 0.7090392155 4.7274822124 9.0073255401
6 1 3.7201998175 3.2455059735 6.4564928128
19 3 3.6043508625 3.4896894844 9.78128817
26 3 3.6419802675 4.7897819921 7.5915891742
14 2 4.1424253475 4.760713703 9.0638717729
24 3 3.63458842 6.0350363633 9.7985057389
54 3 1.522920635 6.5324215963 1.1593198462
48 2 0.9967461242 7.8112780696 1.8800587457
60 3 1.48309068 7.8048294309 3.3616719506
34 1 1.0323880325 6.2165000682 4.5297279615
63 3 1.53630398 9.0930623731 1.1663682221
39 1 3.5464864 6.2730306635 1.1236745956
35 1 3.51935962 7.8449419403 3.6074097562
64 3 4.4561037475 7.8438177523 1.8394562789
57 3 1.571252715 6.5444911749 6.4159646512
43 1 1.598139435 6.2633700591 9.8243108622
62 3 1.572092925 9.0892450755 6.4224610458
47 2 1.05454357 7.8145147427 7.1553223028
49 3 1.5690221575 7.8150088913 8.6244097793
44 1 3.5829255075 6.3134149546 6.3552254838
37 1 3.6084518875 7.827029055 8.9085315117
55 3 4.498984465 7.8353183971 7.1632092656
33 1 1.0365290675 9.3371717618 4.5317023559
40 1 1.05286315 10.9145186727 2.0055495594
59 3 1.9612601925 10.8801506404 3.7865276711
41 1 3.549627185 9.4101327967 1.1224432528
50 3 4.028066765 9.5638624137 4.4549663474
53 3 4.02880695 10.921374984 2.299468959
45 2 3.523380625 10.8892306202 3.7813263094
52 3 4.0689269775 12.0932853552 4.575096574
42 1 1.5994497625 9.3580989533 9.8308815621
36 1 1.594618555 10.8968281543 7.2933388448
61 3 0.6944865782 10.884919174 9.0328759028
38 1 3.578874495 9.3632010372 6.3599703996
51 3 3.6291770675 9.6269528311 9.7856190998
58 3 3.6090320325 10.896494604 7.5900712257
46 2 4.13707401 10.9054263392 9.0529489132
56 3 3.6228954975 12.1709037402 9.7942915744
86 3 6.560579735 0.3652622618 1.1398731222
80 2 6.0172139275 1.6565095103 1.8493494813
92 3 6.53207261 1.6511109372 3.322523742
66 1 5.9970888975 0.1607897646 4.5028931808
95 3 6.578264155 2.9379232023 1.1372618263
71 1 8.5329427025 0.0700123269 1.0869466125
67 1 8.62827653 1.6764360509 3.612653578
96 3 9.4087415975 1.6336427856 1.7575719838
89 3 6.5936980125 0.3893310028 6.4177798203
75 1 6.5987992875 0.1069330072 9.8244276275
94 3 6.5592894125 2.9373919926 6.4389992532
79 2 6.0761486575 1.6509256315 7.1707671627
81 3 6.6184842075 1.6471206876 8.6289317796
76 1 8.6032402725 0.134863025 6.3634096673
69 1 8.6573738025 1.6505673738 8.8903904357
87 3 9.5603394875 1.6908034203 7.1201441133
65 1 6.0890118725 3.1899266142 4.4893484102
72 1 6.0751083975 4.7477299496 1.9467529415
91 3 6.9126977425 4.8253853958 3.7089212307
73 1 8.5506271225 3.2126450943 1.0931564016
82 3 8.86689617 3.4457967386 4.4629594605
85 3 9.02005445 4.7354256505 2.2633778774
77 2 8.4725075975 4.7394406075 3.7316479971
84 3 9.0311272175 6.0122808221 4.4585329955
74 1 6.61969451 3.1885059371 9.823769496
68 1 6.5906972625 4.7411330663 7.3022873101
93 3 5.7029953925 4.7431961366 9.0737862053
70 1 8.6162235175 3.1948310387 6.3319891963
83 3 8.64079966 3.4665880393 9.7551221358
90 3 8.618214015 4.741750752 7.5562092992
78 2 9.1520974525 4.7366857293 9.0164863058
88 3 8.642300035 6.0106501318 9.7570009951
118 3 6.5559685825 6.5876921128 1.1348840609
112 2 6.013883095 7.8554796583 1.8651021769
124 3 6.5259810875 7.8606188033 3.337979217
98 1 6.0522026725 6.3465105544 4.5154719842
127 3 6.52999209 9.1410689057 1.1462209065
103 1 8.5656908875 6.2551424856 1.0994829559
99 1 8.5430852375 7.8165407518 3.6176426393
1 3 9.440499535 7.8259295744 1.839042293
121 3 6.5709323225 6.5593403392 6.4223336656
107 1 6.6127027625 6.2892016751 9.8227292237
126 3 6.570142125 9.1040942397 6.4206458767
111 2 6.0560836425 7.8319211257 7.1609694956
113 3 6.5808347975 7.8286473915 8.6251846761
108 1 8.5796343725 6.279961097 6.3514040752
101 1 8.6142630275 7.8208398443 8.8912184076
119 3 9.497953895 7.8201850974 7.1423932036
97 1 6.0278965975 9.3695879073 4.5241550739
104 1 6.0377990725 10.951740413 1.9948496152
123 3 6.9547882625 10.9184595075 3.770997891
105 1 8.5465461025 9.393875309 1.0998438667
114 3 9.0319674275 9.6184287684 4.4625454746
117 3 9.0254057875 10.9074399946 2.2697999669
109 2 8.51080717 10.9075758854 3.7454581433
116 3 9.0444305425 12.1731891773 4.4791898322
106 1 6.5967387725 9.3762712666 9.8193748761
100 1 6.59020714 10.9278359764 7.2822779898
125 3 5.6974139975 10.9111214014 9.0404019549
102 1 8.5755533525 9.3586919316 6.357974775
115 3 8.61527328 9.6306342378 9.7557378072
122 3 8.62483567 10.9083418157 7.5523029704
110 2 9.1385540675 10.9009172336 9.0213161417
120 3 8.6268061625 12.1752028327 9.7498464689
