# LAMMPS data file written by OVITO Pro 3.6.0
127 atoms
3 atom types
0.0 10.0025 xlo xhi
0.0 12.353714 ylo yhi
0.0 10.615024 zlo zhi

Masses

1 7.01
2 30.974
3 32.066

Atoms  # atomic

22 3 1.4955838025 0.3328621761 1.1118706889
16 2 0.9652562538 1.6023014132 1.8559307962
28 3 1.367761855 1.5327623571 3.3375970761
2 1 1.0499524225 0.077436909 4.5341119664
31 3 1.53706417 2.8920909234 1.1765798752
7 1 3.5182293375 0.1224004748 1.188872073
3 1 2.22523617 2.7336051265 4.4546903568
32 3 4.4935931175 1.6611297993 1.7257693719
25 3 1.58127522 0.3330425404 6.4275774874
11 1 1.603180695 0.0742573101 9.8112756128
30 3 1.73411342 2.8588841402 6.4141813271
15 2 1.112458045 1.6339022136 7.1472442695
17 3 1.588897125 1.6257487624 8.6321693619
12 1 3.5930080275 0.1078329752 6.3820602645
5 1 3.6133331075 1.6422533243 8.9481361663
23 3 4.52305048 1.625637579 7.2087264885
8 1 1.031357775 4.6540764438 2.0704498162
27 3 2.038529505 4.7317442437 3.7558184067
9 1 3.546226335 3.2006619917 1.1696482645
18 3 4.10650637 3.59458487 4.5653201369
21 3 4.10838684 4.7771812038 2.2803513008
13 2 3.5907874725 4.8172690057 3.7532283408
20 3 4.0617451825 6.1351632152 4.4451580653
10 1 1.5921479375 3.1790553459 9.8354672525
4 1 1.614023405 4.6959061194 7.2449131054
29 3 0.7105205857 4.7282110815 9.0071875448
6 1 3.73141262 3.2233187032 6.452628944
19 3 3.604760965 3.4904183536 9.7858844754
26 3 3.64115006 4.7805290603 7.5904639816
14 2 4.14247536 4.7579588248 9.0631181062
24 3 3.6340782925 6.034789289 9.793697133
54 3 1.524601055 6.5247252325 1.1610925552
48 2 0.9976343463 7.8057806669 1.8790609335
60 3 1.482110435 7.7954035471 3.3610668942
34 1 1.03245805 6.2184396013 4.5307045437
63 3 1.5409551425 9.0860948784 1.1666335977
39 1 3.55076747 6.2707328727 1.1171888159
35 1 3.51619883 7.8365784759 3.5962427509
64 3 4.4591145 7.8378509084 1.8336710908
57 3 1.5713827475 6.5411309647 6.416782008
43 1 1.59923971 6.263160046 9.8233767401
62 3 1.5741434375 9.086329599 6.42208952
47 2 1.0551537225 7.8128222839 7.1551418474
49 3 1.5685820475 7.8131805416 8.6244946995
44 1 3.584435885 6.3115618975 6.3568177374
37 1 3.6087919725 7.8277579241 8.9069180281
55 3 4.4996346275 7.8335641697 7.1638567821
33 1 1.0422705025 9.3339597961 4.5311503747
40 1 1.0596348425 10.9116526111 2.0076619492
59 3 1.9725430125 10.8759256702 3.7867824317
41 1 3.55476847 9.4059078265 1.118558154
50 3 4.02432583 9.5287284511 4.4430987506
53 3 4.03712903 10.9099848597 2.2983119214
45 2 3.53548365 10.8660674064 3.78158107
52 3 4.1027154225 12.0438704992 4.5914649411
42 1 1.6019503875 9.358024831 9.82994744
36 1 1.59851953 10.8957039663 7.2925533331
61 3 0.6981364905 10.8859321785 9.032928978
38 1 3.582555415 9.3624103995 6.3558623853
51 3 3.6302973475 9.6248526997 9.7828698085
58 3 3.6084718925 10.8983353074 7.5885320473
46 2 4.1358236975 10.9055251689 9.0512611244
56 3 3.619044535 12.1677041283 9.7965101144
86 3 6.5778540525 0.361730335 1.1372830563
80 2 6.02734646 1.6532357761 1.8405602414
92 3 6.53207261 1.6492578801 3.3178531315
66 1 6.0021301575 0.1568575774 4.5020015188
95 3 6.5902571525 2.9378984949 1.1352874318
71 1 8.5429852125 0.0676012525 1.08584265
67 1 8.6257859075 1.6720381288 3.6092036952
96 3 9.4109821575 1.6344210696 1.7573702983
89 3 6.6010398475 0.3902142934 6.4174932146
75 1 6.6037805325 0.1057077658 9.8232175148
94 3 6.55571852 2.9368237218 6.4372583893
79 2 6.0800696375 1.648529011 7.1726247919
81 3 6.6267862825 1.6479483865 8.6291865401
76 1 8.6072012625 0.131716534 6.3606603761
69 1 8.65624352 1.6504685441 8.8917173137
87 3 9.556568545 1.6899880752 7.1232861604
65 1 6.0704072225 3.1780794025 4.4872890955
72 1 6.0800896425 4.7422325469 1.9468697068
91 3 6.9171988675 4.8135381841 3.7153008601
73 1 8.555838425 3.2122127143 1.0909272465
82 3 8.8888116475 3.4445366598 4.4623862492
85 3 9.0214648025 4.7357221396 2.2633460323
77 2 8.477378815 4.7354750653 3.7329748751
84 3 9.0325075625 6.0105513021 4.4586816058
74 1 6.62281529 3.188987732 9.8231750547
68 1 6.5893969375 4.7405524418 7.3008967419
93 3 5.703125425 4.7423190229 9.0725548626
70 1 8.6085616025 3.1932868244 6.3316282855
83 3 8.6441504975 3.4666374541 9.7536041874
90 3 8.6194443225 4.7413430795 7.5545958155
78 2 9.1535178075 4.7367969127 9.0149152822
88 3 8.64384042 6.0106624856 9.7553450513
118 3 6.5583891875 6.5817499764 1.1338968637
112 2 6.0166537875 7.8508099544 1.8626819514
124 3 6.528291665 7.8550472783 3.3357288319
98 1 6.050972365 6.3430391607 4.5143255616
127 3 6.5341031175 9.1359668218 1.1443632773
103 1 8.564200515 6.252968232 1.0973917961
99 1 8.5445656075 7.8154906861 3.6167403623
1 3 9.4420499225 7.8218404951 1.8358896308
121 3 6.5702521525 6.5583767495 6.4205078814
107 1 6.6138630525 6.2879415963 9.8207017541
126 3 6.570302165 9.1030812352 6.4190536231
111 2 6.0566037725 7.8312293177 7.1600672185
113 3 6.5830753575 7.828066767 8.6237304178
108 1 8.5788141675 6.2797757913 6.3509157841
101 1 8.61555335 7.8216551894 8.8903904357
119 3 9.498714085 7.8184555775 7.1409707904
97 1 6.02818667 9.3668947976 4.5210554869
104 1 6.0450408825 10.9507274084 1.9936288875
123 3 6.9637705075 10.9155563847 3.769235797
105 1 8.549116745 9.3925411079 1.0988142094
114 3 9.0386090875 9.6145620559 4.4614308971
117 3 9.0342479975 10.9032891467 2.2684200138
109 2 8.5196593825 10.9048827758 3.7443541808
116 3 9.05566335 12.1701748711 4.476907602
106 1 6.5975589775 9.3773954546 9.817591552
100 1 6.58896683 10.9286019067 7.2797728442
125 3 5.696723825 10.9127891528 9.0396270581
102 1 8.5769937125 9.358457211 6.3565205168
115 3 8.618214015 9.6313136921 9.7555573518
122 3 8.6274663275 10.9068717237 7.5517509891
110 2 9.1420749475 10.9010531245 9.0203077144
120 3 8.6323075375 12.1761787761 9.7482117552
