# LAMMPS data file written by OVITO Pro 3.6.0
127 atoms
3 atom types
0.0 10.0025 xlo xhi
0.0 12.353714 ylo yhi
0.0 10.615024 zlo zhi

Masses

1 7.01
2 30.974
3 32.066

Atoms  # atomic

22 3 1.50897715 0.343415954 1.1368372253
16 2 0.9656323478 1.6166193678 1.865590468
28 3 1.35037751 1.573369015 3.3532860816
2 1 1.08355082 0.0934273093 4.5314900555
31 3 1.53426347 2.9036539997 1.178267664
7 1 3.52480098 0.113458486 1.194636031
3 1 1.87490861 2.9464102039 4.4966090866
32 3 4.50812675 1.6506167887 1.704592399
25 3 1.58415594 0.3505205749 6.4338509666
11 1 1.6021504375 0.0776897895 9.8256695853
30 3 1.68502115 2.8861117258 6.4412177932
15 2 1.09663409 1.6375342056 7.1638461671
17 3 1.58331573 1.6288495446 8.6437609681
12 1 3.59397827 0.1148715038 6.3702669728
5 1 3.61898452 1.638856053 8.9541442698
23 3 4.5243207975 1.6231050676 7.2087158735
8 1 1.0344685525 4.6836265277 2.0413964955
27 3 2.01986484 4.7657293109 3.7469124016
9 1 3.54392576 3.1896301251 1.1808364998
18 3 4.0774891175 3.606679156 4.5782173911
21 3 4.10034483 4.7686571411 2.2828352164
13 2 3.58025484 4.8182573029 3.7547356743
20 3 4.0567439325 6.1400182249 4.437080032
10 1 1.595298725 3.1843674429 9.840562464
4 1 1.61728422 4.7116571047 7.2709836043
29 3 0.7101304882 4.7331772745 9.0169958269
6 1 3.69740412 3.1956463838 6.4330229947
19 3 3.6068114775 3.4877499513 9.790597546
26 3 3.63910955 4.7658528481 7.5875660801
14 2 4.142855455 4.7510778061 9.0593922328
24 3 3.6343583625 6.0312684805 9.7856084847
54 3 1.5315928025 6.5268006565 1.1577912827
48 2 1.0009001625 7.8077449074 1.8741249473
60 3 1.4826005575 7.8000114825 3.3563432085
34 1 1.02837703 6.2458648464 4.5320526517
63 3 1.5458563675 9.0871696515 1.1625998886
39 1 3.55876947 6.262554714 1.1094398484
35 1 3.5147884775 7.8244718362 3.5822415343
64 3 4.4643658125 7.8290056492 1.8255505975
57 3 1.57471358 6.5409827202 6.4185759471
43 1 1.603660815 6.2663967191 9.822867219
62 3 1.5768441125 9.0865766733 6.4228431867
47 2 1.057364275 7.8134276159 7.1556301385
49 3 1.5691421875 7.8132423102 8.6252589812
44 1 3.5905674175 6.3037790576 6.3538243007
37 1 3.61082248 7.8252748276 8.9030966194
55 3 4.50140507 7.8297715795 7.1626466694
33 1 1.0526530975 9.3360846349 4.5311397597
40 1 1.0711577225 10.9108496197 2.0122157945
59 3 1.9887270575 10.8784705353 3.7889160515
41 1 3.5635006525 9.3985697203 1.1118494588
50 3 4.024265815 9.4977947512 4.4324731116
53 3 4.050872465 10.8961981149 2.2970911936
45 2 3.5517977275 10.8449425555 3.7810397037
52 3 4.1375441275 12.0029549984 4.6035766834
42 1 1.60692163 9.359062543 9.8267204727
36 1 1.6033507375 10.9006701593 7.2921075021
61 3 0.7027386407 10.8878222968 9.0331943536
38 1 3.587516655 9.359149019 6.3518392912
51 3 3.6336981975 9.6205412535 9.7777109069
58 3 3.6097322075 10.9003119016 7.5858146011
46 2 4.135893715 10.9043515661 9.048851514
56 3 3.6151335575 12.1621820181 9.7991001802
86 3 6.5977190175 0.3560303314 1.1374635117
80 2 6.039849585 1.6473430545 1.8349024336
92 3 6.5336630075 1.6467253688 3.3168234742
66 1 6.0185742675 0.1471784425 4.5028188756
95 3 6.602790285 2.934439455 1.1345549952
71 1 8.5575488525 0.0631750403 1.0837727204
67 1 8.625735895 1.6674178397 3.605116911
96 3 9.411772355 1.6360764673 1.7524661572
89 3 6.6052208925 0.3875384789 6.4187776325
75 1 6.6099420725 0.1035138697 9.8217526415
94 3 6.5583491775 2.9318822362 6.4307407646
79 2 6.08143998 1.6464288796 7.1714359092
81 3 6.6274464475 1.648615487 8.628666404
76 1 8.6083015375 0.124478493 6.358834592
69 1 8.64900171 1.6486525482 8.8990947554
87 3 9.5413947525 1.6763619287 7.1378287432
65 1 6.034128155 3.1656886274 4.4878941519
72 1 6.0837705625 4.7307065317 1.95494774
91 3 6.9319625575 4.7869406379 3.7301300486
73 1 8.561759905 3.2144610902 1.0879974999
82 3 8.9422850125 3.4476992105 4.4633309864
85 3 9.0259259175 4.7380446378 2.2625605205
77 2 8.4928126725 4.7313118637 3.7359046217
84 3 9.0346280925 6.0137385603 4.4580447044
74 1 6.623475455 3.1890618542 9.8227398387
68 1 6.58616613 4.7354627116 7.2952177041
93 3 5.70362555 4.738514079 9.0677781018
70 1 8.6030802325 3.1880241423 6.3346747974
83 3 8.6443905575 3.4674280918 9.7529354409
90 3 8.6234053125 4.7404659658 7.5538103038
78 2 9.15312771 4.7380199304 9.0158281743
88 3 8.640659625 6.0115643067 9.7539226381
118 3 6.56087981 6.5687168081 1.1335041078
112 2 6.021525005 7.8406799089 1.8591683785
124 3 6.5331428775 7.84417601 3.332236489
98 1 6.0511124 6.3306360319 4.5117885709
127 3 6.542255155 9.1247990644 1.1410301598
103 1 8.5619099425 6.251325188 1.0944195894
99 1 8.548596615 7.8142182536 3.6130357189
1 3 9.445820865 7.8191473854 1.8287987948
121 3 6.5711523775 6.5551894913 6.4179178156
107 1 6.61337293 6.2840007615 9.8169440356
126 3 6.5718325475 9.1000422215 6.4156249704
111 2 6.058214175 7.8284250247 7.1574665376
113 3 6.5858760575 7.8266707973 8.6208219012
108 1 8.578364055 6.2790716296 6.3506610235
101 1 8.61691369 7.8214822374 8.8890423276
119 3 9.5010246625 7.8168619484 7.1393891518
97 1 6.0324777425 9.3585066258 4.5161725758
104 1 6.059014375 10.9445999663 1.9912723522
123 3 6.97842417 10.9085765363 3.7663909706
105 1 8.554918195 9.3904162691 1.0952900214
114 3 9.05130226 9.6093982035 4.4599023336
117 3 9.048761625 10.8979770497 2.2664031592
109 2 8.5344230725 10.9002254256 3.7425708568
116 3 9.0705970825 12.1660487306 4.4745086066
106 1 6.5999995875 9.3765677557 9.8143433547
100 1 6.58760649 10.9269835701 7.2772146234
125 3 5.697163935 10.9140121704 9.0389158515
102 1 8.5801545025 9.3566041539 6.3540047561
115 3 8.6229552 9.6302512727 9.7544215442
122 3 8.6313272925 10.9029555964 7.5505833365
110 2 9.1465360625 10.8997806919 9.0186836158
120 3 8.63691869 12.1745975007 9.7469379523
