ITEM: TIMESTEP
2790
ITEM: NUMBER OF ATOMS
127
ITEM: BOX BOUNDS pp pp pp
0.0000000000000000e+00 1.0002500000000000e+01
0.0000000000000000e+00 1.2353714000000000e+01
0.0000000000000000e+00 1.0615024000000000e+01
ITEM: ATOMS id type xs ys zs
22 3 0.148959 0.0263247 0.103431
16 2 0.0979004 0.129426 0.174588
28 3 0.144487 0.122902 0.312434
2 1 0.101426 0.00988984 0.429443
31 3 0.153923 0.233701 0.109546
7 1 0.351765 0.0100344 0.108826
3 1 0.319387 0.154154 0.369592
32 3 0.444668 0.135531 0.174256
25 3 0.158108 0.0284432 0.606794
11 1 0.15977 0.00468871 0.924773
30 3 0.170242 0.234455 0.615143
15 2 0.109669 0.133048 0.676435
17 3 0.155494 0.128363 0.817339
12 1 0.357601 0.00882983 0.603476
5 1 0.358503 0.133517 0.84033
23 3 0.450843 0.133121 0.676464
8 1 0.102998 0.375199 0.197343
27 3 0.203075 0.39031 0.350864
9 1 0.354631 0.261079 0.10719
18 3 0.410194 0.287854 0.425334
21 3 0.41011 0.386126 0.213874
13 2 0.356508 0.389261 0.352744
20 3 0.408616 0.494137 0.420059
10 1 0.158404 0.256755 0.925505
4 1 0.159719 0.380797 0.682817
29 3 0.0701239 0.383301 0.850316
6 1 0.36249 0.261583 0.603483
19 3 0.360687 0.281904 0.920727
26 3 0.364668 0.387389 0.714373
14 2 0.414142 0.385049 0.85303
24 3 0.36311 0.488017 0.922759
54 3 0.152299 0.52989 0.109012
48 2 0.099653 0.633094 0.177265
60 3 0.148586 0.633361 0.316782
34 1 0.102756 0.504045 0.426898
63 3 0.153032 0.736996 0.109797
39 1 0.354018 0.50762 0.106262
35 1 0.352256 0.634838 0.341301
64 3 0.445008 0.635304 0.174087
57 3 0.157281 0.530375 0.604476
43 1 0.159789 0.507204 0.925885
62 3 0.156982 0.736309 0.605248
47 2 0.105402 0.632935 0.674193
49 3 0.156828 0.632897 0.812605
44 1 0.358273 0.510369 0.59849
37 1 0.360645 0.633254 0.839089
55 3 0.449653 0.634376 0.674345
33 1 0.103005 0.756643 0.427207
40 1 0.104363 0.884075 0.188982
59 3 0.195 0.882231 0.357164
41 1 0.354236 0.761732 0.105675
50 3 0.40386 0.779346 0.421568
53 3 0.401831 0.884971 0.216172
45 2 0.350754 0.8842 0.355375
52 3 0.402372 0.986492 0.425968
42 1 0.159549 0.757507 0.926146
36 1 0.158607 0.883151 0.687382
61 3 0.0687705 0.880957 0.851424
38 1 0.357242 0.75811 0.599986
51 3 0.362522 0.779606 0.921688
58 3 0.361059 0.882523 0.714769
46 2 0.413733 0.88292 0.852681
56 3 0.362854 0.985609 0.92251
86 3 0.652091 0.0302079 0.108424
80 2 0.599833 0.134366 0.176874
92 3 0.652814 0.133872 0.314894
66 1 0.601693 0.0125946 0.425502
95 3 0.654387 0.237342 0.107931
71 1 0.852779 0.00638886 0.103184
67 1 0.862466 0.13629 0.341897
96 3 0.941947 0.132328 0.168754
89 3 0.658062 0.0312453 0.604931
75 1 0.658987 0.00872682 0.925671
94 3 0.656672 0.237551 0.606721
79 2 0.606634 0.133957 0.675396
81 3 0.659917 0.133211 0.813141
76 1 0.859649 0.0108586 0.600052
69 1 0.864794 0.133427 0.83805
87 3 0.953341 0.135079 0.672601
65 1 0.61012 0.25999 0.424409
72 1 0.605916 0.385 0.183861
91 3 0.690744 0.391172 0.348918
73 1 0.854596 0.259827 0.103799
82 3 0.884917 0.279197 0.420769
85 3 0.90143 0.383283 0.213244
77 2 0.846729 0.383983 0.351541
84 3 0.902445 0.487036 0.419993
74 1 0.661063 0.258128 0.92547
68 1 0.658579 0.383487 0.6879
93 3 0.570195 0.383916 0.854902
70 1 0.863149 0.258466 0.597317
83 3 0.862795 0.280742 0.919876
90 3 0.861432 0.383893 0.712601
78 2 0.914334 0.383584 0.850323
88 3 0.862925 0.486745 0.919727
118 3 0.654914 0.533575 0.1072
112 2 0.600807 0.636119 0.17607
124 3 0.651937 0.636717 0.314863
98 1 0.604818 0.513449 0.425566
127 3 0.652241 0.740256 0.108316
103 1 0.856405 0.506575 0.103887
99 1 0.853974 0.632829 0.341035
1 3 0.943732 0.633903 0.173739
121 3 0.657131 0.531063 0.605149
107 1 0.660664 0.509128 0.925455
126 3 0.656833 0.737064 0.604972
111 2 0.605373 0.634001 0.674579
113 3 0.657428 0.633812 0.812637
108 1 0.857838 0.508217 0.598594
101 1 0.860943 0.632939 0.837727
119 3 0.949498 0.633257 0.672986
97 1 0.603292 0.758635 0.426665
104 1 0.603234 0.886087 0.188152
123 3 0.694936 0.884266 0.355598
105 1 0.854268 0.760421 0.103727
114 3 0.902633 0.779144 0.420603
117 3 0.901459 0.883289 0.213847
109 2 0.850674 0.88345 0.353017
116 3 0.903863 0.98608 0.421943
106 1 0.659371 0.758781 0.925189
100 1 0.658915 0.884529 0.686522
125 3 0.569643 0.883055 0.8518
102 1 0.857297 0.757661 0.599246
115 3 0.860816 0.779322 0.919299
122 3 0.861749 0.883039 0.711955
110 2 0.912998 0.882307 0.850385
120 3 0.861324 0.985178 0.919494
