ITEM: TIMESTEP
2790
ITEM: NUMBER OF ATOMS
127
ITEM: BOX BOUNDS pp pp pp
0.0000000000000000e+00 1.0002500000000000e+01
0.0000000000000000e+00 1.2353714000000000e+01
0.0000000000000000e+00 1.0615024000000000e+01
ITEM: ATOMS id type xs ys zs
22 3 0.151707 0.0301577 0.111093
16 2 0.0941909 0.1336 0.176832
28 3 0.126588 0.1336 0.318403
2 1 0.11109 0.0109324 0.426931
31 3 0.151707 0.237042 0.111093
7 1 0.352705 0.00967304 0.113424
32 3 0.451232 0.1336 0.162354
25 3 0.15732 0.0305364 0.607182
11 1 0.158944 0.00813101 0.927686
30 3 0.15732 0.236663 0.607182
15 2 0.105484 0.1336 0.67619
17 3 0.156301 0.1336 0.814901
12 1 0.358465 0.010612 0.599108
5 1 0.361149 0.1336 0.842265
23 3 0.45079 0.1336 0.676617
8 1 0.107322 0.38255 0.190513
27 3 0.199458 0.384822 0.357354
9 1 0.352705 0.257527 0.113424
18 3 0.415465 0.296319 0.433951
21 3 0.405433 0.385472 0.216315
13 2 0.355718 0.389321 0.356203
20 3 0.401602 0.498783 0.417313
3 1 0.11109 0.256267 0.426931
10 1 0.158944 0.259069 0.927686
4 1 0.159636 0.383178 0.68754
29 3 0.0692227 0.384298 0.851611
6 1 0.358465 0.256588 0.599108
19 3 0.360128 0.282049 0.923401
26 3 0.360391 0.383808 0.714581
14 2 0.412376 0.383871 0.852633
24 3 0.36199 0.487899 0.920909
54 3 0.154001 0.529978 0.109388
48 2 0.100012 0.6336 0.176433
60 3 0.148067 0.6336 0.316025
34 1 0.105653 0.509737 0.427581
63 3 0.154001 0.737222 0.109388
39 1 0.356143 0.506359 0.104393
35 1 0.350851 0.6336 0.336493
64 3 0.446128 0.6336 0.171407
57 3 0.15676 0.53055 0.605969
43 1 0.159866 0.508254 0.925804
62 3 0.15676 0.73665 0.605969
47 2 0.104788 0.6336 0.675012
49 3 0.155551 0.6336 0.813561
44 1 0.358091 0.509368 0.598521
37 1 0.359911 0.6336 0.838657
55 3 0.448986 0.6336 0.674824
33 1 0.105653 0.757462 0.427581
40 1 0.107322 0.88465 0.190513
59 3 0.199458 0.882378 0.357354
41 1 0.356143 0.76084 0.104393
50 3 0.401602 0.768417 0.417313
53 3 0.405433 0.881727 0.216315
45 2 0.355718 0.877879 0.356203
52 3 0.415465 0.970881 0.433951
42 1 0.159866 0.758946 0.925804
36 1 0.159636 0.884022 0.68754
61 3 0.0692227 0.882902 0.851611
38 1 0.358091 0.757831 0.598521
51 3 0.36199 0.779301 0.920909
58 3 0.360391 0.883391 0.714581
46 2 0.412376 0.883329 0.852633
56 3 0.360128 0.985151 0.923401
86 3 0.659743 0.0290944 0.107829
80 2 0.604356 0.1336 0.173844
92 3 0.654903 0.1336 0.313253
66 1 0.602755 0.0116225 0.424762
95 3 0.659743 0.238105 0.107829
71 1 0.855151 0.00519313 0.101619
67 1 0.861578 0.1336 0.337552
96 3 0.938744 0.1336 0.16215
89 3 0.658393 0.0308269 0.605679
75 1 0.659196 0.00861266 0.925746
94 3 0.658393 0.236373 0.605679
79 2 0.60651 0.1336 0.675391
81 3 0.658918 0.1336 0.813527
76 1 0.85826 0.00930384 0.599348
69 1 0.860976 0.1336 0.839746
87 3 0.949604 0.1336 0.674705
65 1 0.602755 0.255577 0.424762
72 1 0.60621 0.381726 0.18763
91 3 0.697989 0.384634 0.35478
73 1 0.855151 0.262007 0.101619
82 3 0.906562 0.281904 0.421664
85 3 0.904961 0.384541 0.213579
77 2 0.853575 0.384587 0.352672
84 3 0.905495 0.48894 0.42027
74 1 0.659196 0.258587 0.925746
68 1 0.656751 0.382845 0.68608
93 3 0.568476 0.3835 0.852416
70 1 0.85826 0.257896 0.599348
83 3 0.86151 0.281507 0.918307
90 3 0.861875 0.384799 0.711523
78 2 0.913352 0.384427 0.849774
88 3 0.861662 0.487358 0.919188
118 3 0.654879 0.529974 0.107789
112 2 0.601749 0.6336 0.175463
124 3 0.652578 0.6336 0.314378
98 1 0.602538 0.510335 0.425367
127 3 0.654879 0.737225 0.107789
103 1 0.855393 0.506638 0.103024
99 1 0.854796 0.6336 0.340374
1 3 0.944339 0.6336 0.171897
121 3 0.656008 0.530621 0.604366
107 1 0.659176 0.508232 0.924749
126 3 0.656008 0.736579 0.604366
111 2 0.604624 0.6336 0.674208
113 3 0.657405 0.6336 0.812089
108 1 0.85695 0.509444 0.59863
101 1 0.860217 0.6336 0.837677
119 3 0.948965 0.6336 0.673107
97 1 0.602538 0.756865 0.425367
104 1 0.60621 0.885474 0.18763
123 3 0.697989 0.882566 0.35478
105 1 0.855393 0.760562 0.103024
114 3 0.905495 0.778259 0.42027
117 3 0.904961 0.882658 0.213579
109 2 0.853575 0.882613 0.352672
116 3 0.906562 0.985295 0.421664
106 1 0.659176 0.758968 0.924749
100 1 0.656751 0.884354 0.68608
125 3 0.568476 0.883699 0.852416
102 1 0.85695 0.757756 0.59863
115 3 0.861662 0.779842 0.919188
122 3 0.861875 0.882401 0.711523
110 2 0.913352 0.882772 0.849774
120 3 0.86151 0.985693 0.918307
