ITEM: TIMESTEP
2790
ITEM: NUMBER OF ATOMS
127
ITEM: BOX BOUNDS pp pp pp
0.0000000000000000e+00 1.0002500000000000e+01
0.0000000000000000e+00 1.2353714000000000e+01
0.0000000000000000e+00 1.0615024000000000e+01
ITEM: ATOMS id type xs ys zs
22 3 0.149521 0.0269443 0.104745
16 2 0.0965015 0.129702 0.17484
28 3 0.136742 0.124073 0.314422
2 1 0.104969 0.00626831 0.427141
31 3 0.153668 0.234107 0.110841
7 1 0.351735 0.00990799 0.111999
3 1 0.222468 0.221278 0.419659
32 3 0.449247 0.134464 0.162578
25 3 0.158088 0.0269589 0.605517
11 1 0.160278 0.00601093 0.924282
30 3 0.173368 0.231419 0.604255
15 2 0.111218 0.13226 0.673314
17 3 0.15885 0.1316 0.813203
12 1 0.359211 0.00872879 0.601229
5 1 0.361243 0.132936 0.842969
23 3 0.452192 0.131591 0.679106
8 1 0.10311 0.376735 0.195049
27 3 0.203802 0.383022 0.353821
9 1 0.354534 0.259085 0.110188
18 3 0.410548 0.290972 0.430081
21 3 0.410736 0.3867 0.214823
13 2 0.358989 0.389945 0.353577
20 3 0.406073 0.496625 0.418761
10 1 0.159175 0.257336 0.926561
4 1 0.161362 0.380121 0.682515
29 3 0.0710343 0.382736 0.848532
6 1 0.373048 0.260919 0.607877
19 3 0.360386 0.28254 0.92189
26 3 0.364024 0.386971 0.715068
14 2 0.414144 0.385144 0.853801
24 3 0.363317 0.4885 0.922626
54 3 0.152422 0.528159 0.109382
48 2 0.0997385 0.631857 0.177019
60 3 0.148174 0.631017 0.316633
34 1 0.10322 0.503366 0.42682
63 3 0.154057 0.735495 0.109904
39 1 0.354988 0.507599 0.105246
35 1 0.351532 0.63435 0.338788
64 3 0.4458 0.634453 0.172743
57 3 0.157099 0.529487 0.6045
43 1 0.159884 0.506986 0.925422
62 3 0.157375 0.735514 0.605
47 2 0.105489 0.632427 0.674058
49 3 0.156819 0.632456 0.81248
44 1 0.358354 0.510904 0.598851
37 1 0.360789 0.633636 0.839086
55 3 0.449851 0.634106 0.674879
33 1 0.104201 0.755559 0.426862
40 1 0.105937 0.883269 0.189134
59 3 0.197205 0.880377 0.356738
41 1 0.355388 0.761383 0.105375
50 3 0.402332 0.771325 0.418567
53 3 0.403612 0.883134 0.216515
45 2 0.35346 0.879579 0.356248
52 3 0.410169 0.974919 0.432544
42 1 0.160155 0.757507 0.926041
36 1 0.159812 0.881978 0.687003
61 3 0.0697962 0.881187 0.850957
38 1 0.358166 0.757862 0.598761
51 3 0.362939 0.779106 0.921606
58 3 0.360757 0.882191 0.714886
46 2 0.413479 0.882773 0.852684
56 3 0.361814 0.984943 0.922891
86 3 0.657621 0.0292811 0.107139
80 2 0.602584 0.133825 0.173392
92 3 0.653044 0.133503 0.312562
66 1 0.600063 0.0126972 0.424116
95 3 0.658861 0.237815 0.106951
71 1 0.854085 0.00547214 0.102293
67 1 0.862363 0.135347 0.340009
96 3 0.940863 0.132302 0.165555
89 3 0.659939 0.0315868 0.604567
75 1 0.660213 0.00855676 0.925407
94 3 0.655408 0.237728 0.606429
79 2 0.607855 0.133444 0.675705
81 3 0.662513 0.133397 0.812922
76 1 0.860505 0.0106621 0.599213
69 1 0.865408 0.133601 0.837654
87 3 0.955418 0.1368 0.671057
65 1 0.606889 0.257257 0.42273
72 1 0.607857 0.383871 0.183407
91 3 0.691547 0.389643 0.350004
73 1 0.85537 0.26002 0.102772
82 3 0.888659 0.278826 0.420384
85 3 0.901921 0.383344 0.213221
77 2 0.847526 0.383324 0.351669
84 3 0.903025 0.486538 0.420035
74 1 0.662116 0.25814 0.925403
68 1 0.658775 0.383735 0.687789
93 3 0.57017 0.383878 0.85469
70 1 0.860641 0.258488 0.596478
83 3 0.864199 0.280615 0.918849
90 3 0.861729 0.383799 0.711689
78 2 0.915123 0.383431 0.84926
88 3 0.864168 0.486547 0.919013
118 3 0.655675 0.532775 0.10682
112 2 0.601515 0.635502 0.175476
124 3 0.652666 0.635845 0.314246
98 1 0.604946 0.513452 0.425277
127 3 0.653247 0.739532 0.107806
103 1 0.856206 0.506161 0.103381
99 1 0.854243 0.632643 0.340719
1 3 0.943969 0.633157 0.172952
121 3 0.656861 0.530883 0.604851
107 1 0.661221 0.508992 0.92517
126 3 0.656866 0.73687 0.604714
111 2 0.605509 0.633917 0.674522
113 3 0.658143 0.633661 0.812408
108 1 0.857667 0.508331 0.598295
101 1 0.86134 0.633142 0.837529
119 3 0.949634 0.632883 0.672723
97 1 0.602668 0.758225 0.425911
104 1 0.604353 0.886432 0.187812
123 3 0.696203 0.883585 0.355085
105 1 0.854698 0.760301 0.103515
114 3 0.903635 0.778273 0.420294
117 3 0.903199 0.882592 0.213699
109 2 0.851753 0.882721 0.352741
116 3 0.90534 0.985143 0.421752
106 1 0.659591 0.759075 0.924877
100 1 0.658732 0.884641 0.685799
125 3 0.56953 0.883361 0.851588
102 1 0.857485 0.757542 0.598823
115 3 0.861606 0.779629 0.919033
122 3 0.862531 0.882882 0.711421
110 2 0.913979 0.882411 0.849768
120 3 0.863015 0.985629 0.918341
