ITEM: TIMESTEP
2790
ITEM: NUMBER OF ATOMS
127
ITEM: BOX BOUNDS pp pp pp
0.0000000000000000e+00 1.0002500000000000e+01
0.0000000000000000e+00 1.2353714000000000e+01
0.0000000000000000e+00 1.0615024000000000e+01
ITEM: ATOMS id type xs ys zs
22 3 0.151655 0.0282597 0.1083
16 2 0.0962726 0.131447 0.175956
28 3 0.132873 0.129123 0.316574
2 1 0.110386 0.00834468 0.426829
31 3 0.153154 0.235465 0.110906
7 1 0.352991 0.00897833 0.112726
3 1 0.146996 0.248121 0.42533
32 3 0.451627 0.13323 0.160554
25 3 0.158446 0.0290722 0.606598
11 1 0.160235 0.00650082 0.92628
30 3 0.164422 0.23482 0.607591
15 2 0.108475 0.132664 0.675693
17 3 0.157969 0.132132 0.814768
12 1 0.359438 0.00973046 0.599511
5 1 0.362241 0.132766 0.843199
23 3 0.452414 0.132016 0.678166
8 1 0.105446 0.380666 0.190634
27 3 0.201572 0.38571 0.354124
9 1 0.354154 0.257656 0.112188
18 3 0.412305 0.294172 0.432582
21 3 0.408871 0.385492 0.215354
13 2 0.357883 0.389475 0.3546
20 3 0.404532 0.497789 0.417254
10 1 0.159807 0.258023 0.927249
4 1 0.161922 0.382098 0.686449
29 3 0.0708942 0.383408 0.85024
6 1 0.365568 0.257373 0.602597
19 3 0.360833 0.282052 0.922662
26 3 0.36327 0.384757 0.714554
14 2 0.414088 0.384077 0.853031
24 3 0.363396 0.487901 0.921327
54 3 0.153889 0.528685 0.108947
48 2 0.100442 0.632357 0.176247
60 3 0.148532 0.632008 0.315856
34 1 0.104333 0.507352 0.426952
63 3 0.154798 0.735902 0.109202
39 1 0.356523 0.506399 0.104324
35 1 0.351568 0.633104 0.336785
64 3 0.446747 0.633405 0.171545
57 3 0.157721 0.529543 0.604964
43 1 0.160759 0.507437 0.925365
62 3 0.157804 0.735629 0.605175
47 2 0.105888 0.63258 0.674236
49 3 0.156916 0.632581 0.812712
44 1 0.35942 0.50964 0.598161
37 1 0.361156 0.633224 0.838492
55 3 0.45017 0.633502 0.674628
33 1 0.105845 0.75604 0.426945
40 1 0.107691 0.883321 0.189767
59 3 0.199638 0.880832 0.356951
41 1 0.356744 0.760513 0.104409
50 3 0.402532 0.768073 0.417196
53 3 0.405704 0.881552 0.21624
45 2 0.355907 0.877345 0.356073
52 3 0.415048 0.970602 0.433871
42 1 0.160944 0.757761 0.925533
36 1 0.160577 0.882659 0.686993
61 3 0.0704201 0.881513 0.850998
38 1 0.358973 0.757403 0.598217
51 3 0.363398 0.778649 0.920844
58 3 0.361124 0.88249 0.714443
46 2 0.41357 0.882651 0.852326
56 3 0.361394 0.984404 0.923119
86 3 0.660492 0.028601 0.107245
80 2 0.604708 0.133132 0.172927
92 3 0.654257 0.133151 0.312578
66 1 0.602567 0.0115088 0.424301
95 3 0.660782 0.237444 0.10706
71 1 0.856107 0.00480263 0.101802
67 1 0.862208 0.134107 0.338731
96 3 0.940678 0.132508 0.164108
89 3 0.660261 0.0309467 0.604873
75 1 0.660918 0.00823384 0.925224
94 3 0.65746 0.236689 0.605436
79 2 0.608107 0.133193 0.675349
81 3 0.662019 0.133331 0.81292
76 1 0.860295 0.00954456 0.599044
69 1 0.863879 0.133287 0.838843
87 3 0.952696 0.134656 0.673328
65 1 0.602864 0.25559 0.42338
72 1 0.608241 0.382096 0.185512
91 3 0.696462 0.385221 0.353089
73 1 0.856385 0.260527 0.102067
82 3 0.902503 0.279856 0.420522
85 3 0.904158 0.383713 0.21297
77 2 0.852349 0.383082 0.352106
84 3 0.9049 0.487348 0.419926
74 1 0.661787 0.258103 0.925368
68 1 0.658166 0.382878 0.686668
93 3 0.570161 0.383279 0.853578
70 1 0.85983 0.257762 0.597505
83 3 0.863922 0.280743 0.918568
90 3 0.862553 0.383835 0.711491
78 2 0.914995 0.383634 0.849411
88 3 0.863535 0.486661 0.918851
118 3 0.656071 0.530787 0.107042
112 2 0.602385 0.634004 0.175108
124 3 0.653487 0.634108 0.313918
98 1 0.604724 0.511077 0.424909
127 3 0.654823 0.737856 0.107468
103 1 0.856135 0.506002 0.102877
99 1 0.855147 0.632634 0.340204
1 3 0.944751 0.632919 0.17188
121 3 0.657142 0.530401 0.604344
107 1 0.660934 0.508302 0.924647
126 3 0.657168 0.736391 0.604216
111 2 0.605801 0.633438 0.674075
113 3 0.658577 0.633351 0.811944
108 1 0.857837 0.508401 0.598252
101 1 0.861501 0.633074 0.837345
119 3 0.950049 0.632744 0.672577
97 1 0.603368 0.756988 0.425254
104 1 0.606472 0.885532 0.187471
123 3 0.698378 0.882627 0.354688
105 1 0.855703 0.760045 0.102965
114 3 0.905629 0.777704 0.420089
117 3 0.905351 0.882007 0.213429
109 2 0.853947 0.882165 0.352501
116 3 0.907419 0.984706 0.421454
106 1 0.660017 0.7588 0.924456
100 1 0.6584 0.884278 0.68551
125 3 0.569669 0.883367 0.851611
102 1 0.857975 0.757273 0.598483
115 3 0.862363 0.779426 0.91888
122 3 0.863046 0.88227 0.711245
110 2 0.914578 0.882204 0.849516
120 3 0.863482 0.985344 0.918122
