ITEM: TIMESTEP
2790
ITEM: NUMBER OF ATOMS
127
ITEM: BOX BOUNDS pp pp pp
0.0000000000000000e+00 1.0002500000000000e+01
0.0000000000000000e+00 1.2353714000000000e+01
0.0000000000000000e+00 1.0615024000000000e+01
ITEM: ATOMS id type xs ys zs
22 3 0.148859 0.0264923 0.103381
16 2 0.0962608 0.129073 0.174047
28 3 0.137121 0.121855 0.313323
2 1 0.101997 0.00575775 0.427702
31 3 0.153794 0.233591 0.110749
7 1 0.351584 0.0103281 0.111281
3 1 0.25381 0.19729 0.413024
32 3 0.44792 0.135002 0.165267
25 3 0.158197 0.0266541 0.605235
11 1 0.160244 0.00557153 0.923873
30 3 0.175532 0.230606 0.604615
15 2 0.111741 0.132266 0.67315
17 3 0.158382 0.130814 0.813521
12 1 0.359272 0.00799299 0.602609
5 1 0.360539 0.133158 0.842187
23 3 0.451715 0.132216 0.678164
8 1 0.103082 0.37574 0.19653
27 3 0.204389 0.385173 0.352783
9 1 0.354745 0.259777 0.109424
18 3 0.412079 0.290861 0.429004
21 3 0.411168 0.386834 0.214617
13 2 0.358654 0.390362 0.353318
20 3 0.407235 0.496431 0.419263
10 1 0.158923 0.25705 0.926265
4 1 0.160857 0.379727 0.681387
29 3 0.0708862 0.382677 0.848545
6 1 0.371927 0.262715 0.608241
19 3 0.360345 0.282481 0.921457
26 3 0.364107 0.38772 0.715174
14 2 0.414139 0.385367 0.853872
24 3 0.363368 0.48852 0.923079
54 3 0.152254 0.528782 0.109215
48 2 0.0996497 0.632302 0.177113
60 3 0.148272 0.63178 0.31669
34 1 0.103213 0.503209 0.426728
63 3 0.153592 0.736059 0.109879
39 1 0.35456 0.507785 0.105857
35 1 0.351848 0.635027 0.33984
64 3 0.445499 0.634936 0.173288
57 3 0.157086 0.529759 0.604423
43 1 0.159774 0.507003 0.92551
62 3 0.15717 0.73575 0.605035
47 2 0.105428 0.632564 0.674075
49 3 0.156863 0.632604 0.812472
44 1 0.358203 0.511054 0.598701
37 1 0.360755 0.633577 0.839238
55 3 0.449786 0.634248 0.674818
33 1 0.103627 0.755819 0.426914
40 1 0.10526 0.883501 0.188935
59 3 0.196077 0.880719 0.356714
41 1 0.354874 0.761725 0.105741
50 3 0.402706 0.774169 0.419685
53 3 0.40278 0.884056 0.216624
45 2 0.35225 0.881454 0.356224
52 3 0.406791 0.978919 0.431002
42 1 0.159905 0.757513 0.926129
36 1 0.159422 0.882069 0.687077
61 3 0.0694313 0.881105 0.850952
38 1 0.357798 0.757926 0.599148
51 3 0.362827 0.779276 0.921865
58 3 0.360813 0.882042 0.715031
46 2 0.413604 0.882765 0.852843
56 3 0.362199 0.985202 0.922682
86 3 0.655894 0.029567 0.107383
80 2 0.601571 0.13409 0.17422
92 3 0.653044 0.133653 0.313002
66 1 0.599559 0.0130155 0.4242
95 3 0.657662 0.237817 0.107137
71 1 0.853081 0.00566731 0.102397
67 1 0.862612 0.135703 0.340334
96 3 0.940639 0.132239 0.165574
89 3 0.659205 0.0315153 0.604594
75 1 0.659715 0.00865594 0.925521
94 3 0.655765 0.237774 0.606593
79 2 0.607463 0.133638 0.67553
81 3 0.661683 0.13333 0.812898
76 1 0.860109 0.0109168 0.599472
69 1 0.865521 0.133609 0.837529
87 3 0.955795 0.136866 0.670761
65 1 0.608749 0.258216 0.422924
72 1 0.607359 0.384316 0.183396
91 3 0.691097 0.390602 0.349403
73 1 0.854849 0.260055 0.102982
82 3 0.886468 0.278928 0.420438
85 3 0.90178 0.38332 0.213224
77 2 0.847039 0.383645 0.351544
84 3 0.902887 0.486678 0.420021
74 1 0.661804 0.258101 0.925459
68 1 0.658905 0.383782 0.68792
93 3 0.570157 0.383949 0.854806
70 1 0.861407 0.258613 0.596512
83 3 0.863864 0.280611 0.918992
90 3 0.861606 0.383832 0.711841
78 2 0.914981 0.383422 0.849408
88 3 0.864014 0.486546 0.919169
118 3 0.655433 0.533256 0.106913
112 2 0.601238 0.63588 0.175704
124 3 0.652435 0.636296 0.314458
98 1 0.605069 0.513733 0.425385
127 3 0.652836 0.739945 0.107981
103 1 0.856355 0.506337 0.103578
99 1 0.854095 0.632728 0.340804
1 3 0.943814 0.633488 0.173249
121 3 0.656929 0.530961 0.605023
107 1 0.661105 0.509094 0.925361
126 3 0.65685 0.736952 0.604864
111 2 0.605457 0.633973 0.674607
113 3 0.657919 0.633708 0.812545
108 1 0.857749 0.508346 0.598341
101 1 0.861211 0.633076 0.837607
119 3 0.949558 0.633023 0.672857
97 1 0.602639 0.758443 0.426203
104 1 0.603629 0.886514 0.187927
123 3 0.695305 0.88382 0.355251
105 1 0.854441 0.760409 0.103612
114 3 0.902971 0.778586 0.420399
117 3 0.902315 0.882928 0.213829
109 2 0.850868 0.882939 0.352845
116 3 0.904217 0.985387 0.421967
106 1 0.659509 0.758984 0.925045
100 1 0.658856 0.884579 0.686035
125 3 0.569599 0.883226 0.851661
102 1 0.857341 0.757561 0.59896
115 3 0.861312 0.779574 0.91905
122 3 0.862268 0.883001 0.711473
110 2 0.913627 0.8824 0.849863
120 3 0.862465 0.98555 0.918495
