ITEM: TIMESTEP
2790
ITEM: NUMBER OF ATOMS
127
ITEM: BOX BOUNDS pp pp pp
0.0000000000000000e+00 1.0002500000000000e+01
0.0000000000000000e+00 1.2353714000000000e+01
0.0000000000000000e+00 1.0615024000000000e+01
ITEM: ATOMS id type xs ys zs
22 3 0.15086 0.0277986 0.107097
16 2 0.0965391 0.130861 0.17575
28 3 0.135004 0.12736 0.3159
2 1 0.108328 0.00756269 0.426894
31 3 0.153388 0.235043 0.111
7 1 0.352392 0.00918416 0.112542
3 1 0.187444 0.238504 0.423608
32 3 0.4507 0.133613 0.160583
25 3 0.158376 0.0283737 0.606108
11 1 0.160175 0.00628878 0.925638
30 3 0.16846 0.233623 0.606802
15 2 0.109636 0.132554 0.674878
17 3 0.158292 0.131851 0.814295
12 1 0.359308 0.00929854 0.600118
5 1 0.361808 0.132661 0.843535
23 3 0.452319 0.131386 0.679105
8 1 0.103421 0.379127 0.192312
27 3 0.201936 0.385773 0.352982
9 1 0.354304 0.258192 0.111242
18 3 0.407647 0.291951 0.431296
21 3 0.409932 0.38601 0.215057
13 2 0.357936 0.390025 0.353719
20 3 0.405573 0.497018 0.418
10 1 0.15949 0.257766 0.927041
4 1 0.161688 0.381396 0.684971
29 3 0.0709953 0.383138 0.849456
6 1 0.369648 0.258679 0.60603
19 3 0.360591 0.282324 0.922334
26 3 0.36382 0.385783 0.714795
14 2 0.414182 0.384587 0.85345
24 3 0.363345 0.488215 0.921864
54 3 0.153121 0.528327 0.109071
48 2 0.100065 0.632016 0.176554
60 3 0.148223 0.63139 0.316188
34 1 0.102812 0.505586 0.426947
63 3 0.154547 0.735582 0.109524
39 1 0.355788 0.506937 0.104516
35 1 0.351391 0.63337 0.337469
64 3 0.446325 0.633737 0.171978
57 3 0.157432 0.529475 0.604669
43 1 0.160326 0.507248 0.925374
62 3 0.157645 0.735534 0.605071
47 2 0.10571 0.632476 0.674104
49 3 0.156875 0.632461 0.812552
44 1 0.358967 0.510274 0.598569
37 1 0.360992 0.633435 0.838726
55 3 0.450028 0.633799 0.674765
33 1 0.105239 0.755731 0.426861
40 1 0.107089 0.883204 0.189563
59 3 0.198823 0.880583 0.356939
41 1 0.356261 0.760789 0.104743
50 3 0.402326 0.768821 0.417566
53 3 0.404986 0.882018 0.2164
45 2 0.355091 0.877869 0.356197
52 3 0.413651 0.971607 0.433685
42 1 0.160652 0.757591 0.925737
36 1 0.160295 0.88238 0.686961
61 3 0.0702563 0.88134 0.850982
38 1 0.358662 0.757598 0.598382
51 3 0.363279 0.778757 0.92112
58 3 0.360883 0.882351 0.71463
46 2 0.413486 0.882678 0.852457
56 3 0.361423 0.984496 0.923135
86 3 0.659607 0.0288197 0.107156
80 2 0.603834 0.133348 0.172859
92 3 0.653203 0.133298 0.312465
66 1 0.601707 0.0119137 0.424193
95 3 0.660114 0.237535 0.106882
71 1 0.855541 0.00511385 0.102098
67 1 0.862358 0.134973 0.339624
96 3 0.940942 0.132436 0.165093
89 3 0.660357 0.0313702 0.604688
75 1 0.660829 0.00837917 0.925269
94 3 0.655671 0.237328 0.605815
79 2 0.607992 0.133274 0.675593
81 3 0.662579 0.133451 0.812873
76 1 0.860615 0.0100762 0.599041
69 1 0.864684 0.133454 0.838349
87 3 0.953901 0.135697 0.672427
65 1 0.603262 0.256254 0.422787
72 1 0.608225 0.382938 0.184168
91 3 0.693023 0.38749 0.351401
73 1 0.855962 0.260202 0.102496
82 3 0.894005 0.279082 0.420473
85 3 0.902367 0.383532 0.213147
77 2 0.849069 0.382987 0.351945
84 3 0.903237 0.486796 0.419975
74 1 0.662182 0.258146 0.925362
68 1 0.658452 0.383323 0.687254
93 3 0.57022 0.38357 0.85424
70 1 0.860093 0.258062 0.596765
83 3 0.864223 0.280679 0.918786
90 3 0.862125 0.383728 0.711615
78 2 0.915084 0.38353 0.849346
88 3 0.86385 0.48662 0.918879
118 3 0.655924 0.53172 0.106783
112 2 0.602002 0.634682 0.175145
124 3 0.653151 0.634965 0.313917
98 1 0.60496 0.512448 0.425038
127 3 0.654062 0.738628 0.107492
103 1 0.855977 0.506028 0.103101
99 1 0.854646 0.63254 0.34037
1 3 0.944346 0.632939 0.172284
121 3 0.656951 0.530625 0.604607
107 1 0.661172 0.508673 0.924816
126 3 0.657019 0.736624 0.604391
111 2 0.60567 0.63369 0.674277
113 3 0.658423 0.633548 0.812134
108 1 0.857622 0.508274 0.598271
101 1 0.861476 0.633128 0.837402
119 3 0.949865 0.632754 0.672574
97 1 0.603097 0.757546 0.425451
104 1 0.60575 0.885936 0.18759
123 3 0.697668 0.88302 0.354817
105 1 0.855278 0.760129 0.103183
114 3 0.904904 0.777855 0.42015
117 3 0.90465 0.882162 0.213509
109 2 0.853229 0.882344 0.352573
116 3 0.906833 0.984809 0.421526
106 1 0.659835 0.759008 0.924571
100 1 0.658596 0.88451 0.685558
125 3 0.569574 0.88346 0.851521
102 1 0.857801 0.757392 0.598586
115 3 0.86208 0.779543 0.918926
122 3 0.862917 0.882565 0.711311
110 2 0.914425 0.882308 0.849615
120 3 0.863476 0.985501 0.918221
