ITEM: TIMESTEP
2790
ITEM: NUMBER OF ATOMS
127
ITEM: BOX BOUNDS pp pp pp
0.0000000000000000e+00 1.0002500000000000e+01
0.0000000000000000e+00 1.2353714000000000e+01
0.0000000000000000e+00 1.0615024000000000e+01
ITEM: ATOMS id type xs ys zs
22 3 0.148739 0.0263417 0.103302
16 2 0.0963471 0.129053 0.173963
28 3 0.138175 0.121808 0.313037
2 1 0.100442 0.00670437 0.428528
31 3 0.153846 0.23347 0.110489
7 1 0.351604 0.0104063 0.110418
3 1 0.284011 0.175019 0.39797
32 3 0.446752 0.135302 0.16804
25 3 0.158466 0.0273626 0.605478
11 1 0.160074 0.00511473 0.92419
30 3 0.174338 0.232038 0.609168
15 2 0.111284 0.132613 0.674327
17 3 0.157226 0.129493 0.8151
12 1 0.358888 0.00777261 0.603752
5 1 0.359723 0.133321 0.841506
23 3 0.451286 0.132687 0.67725
8 1 0.10303 0.375404 0.197145
27 3 0.203938 0.388318 0.351556
9 1 0.354784 0.260336 0.108563
18 3 0.411564 0.290344 0.427964
21 3 0.411015 0.386596 0.214474
13 2 0.357651 0.390474 0.353114
20 3 0.408059 0.495939 0.419631
10 1 0.158696 0.256836 0.92592
4 1 0.160382 0.379962 0.681542
29 3 0.0706522 0.382894 0.8491
6 1 0.368228 0.263128 0.607173
19 3 0.360415 0.282342 0.921116
26 3 0.36441 0.388017 0.715035
14 2 0.414193 0.385393 0.853696
24 3 0.363401 0.488424 0.923215
54 3 0.152245 0.52933 0.109045
48 2 0.0996387 0.632684 0.177136
60 3 0.148369 0.632569 0.316687
34 1 0.102918 0.503636 0.426799
63 3 0.153322 0.736523 0.109808
39 1 0.354314 0.507753 0.106189
35 1 0.352039 0.635229 0.340523
64 3 0.445309 0.635183 0.173661
57 3 0.157168 0.530043 0.6044
43 1 0.159797 0.507072 0.925634
62 3 0.157061 0.735991 0.605086
47 2 0.10542 0.632712 0.674105
49 3 0.156893 0.632739 0.812495
44 1 0.358211 0.510941 0.598586
37 1 0.360753 0.633437 0.83926
55 3 0.449752 0.634344 0.674688
33 1 0.103258 0.756097 0.427002
40 1 0.104794 0.883688 0.188905
59 3 0.195349 0.881308 0.356834
41 1 0.354604 0.761827 0.10585
50 3 0.403147 0.776674 0.420642
53 3 0.40233 0.884664 0.216669
45 2 0.35135 0.882902 0.35603
52 3 0.404025 0.982655 0.429203
42 1 0.159777 0.757482 0.926137
36 1 0.159085 0.882487 0.687147
61 3 0.0691945 0.880992 0.851048
38 1 0.357517 0.757926 0.599534
51 3 0.362793 0.779353 0.921949
58 3 0.360896 0.88202 0.715063
46 2 0.413709 0.882746 0.852906
56 3 0.362496 0.985311 0.922629
86 3 0.654556 0.0297955 0.107679
80 2 0.600883 0.134237 0.175017
92 3 0.652853 0.133763 0.313561
66 1 0.600042 0.0129951 0.424471
95 3 0.65663 0.237682 0.107329
71 1 0.852711 0.00583542 0.102517
67 1 0.862783 0.135977 0.340758
96 3 0.940689 0.132234 0.166086
89 3 0.658608 0.0313867 0.604643
75 1 0.659463 0.00870064 0.925537
94 3 0.656145 0.2377 0.606575
79 2 0.607108 0.133797 0.675364
81 3 0.660901 0.133271 0.81289
76 1 0.859848 0.0109798 0.599719
69 1 0.865459 0.133544 0.837637
87 3 0.955114 0.136155 0.671281
65 1 0.609537 0.259014 0.423304
72 1 0.606847 0.384575 0.183524
91 3 0.690886 0.390992 0.349105
73 1 0.854621 0.260081 0.103152
82 3 0.885475 0.279041 0.420513
85 3 0.901643 0.38332 0.21321
77 2 0.846839 0.383837 0.351494
84 3 0.902671 0.486849 0.419995
74 1 0.661592 0.258102 0.925423
68 1 0.658843 0.383691 0.687923
93 3 0.570221 0.383951 0.854922
70 1 0.862239 0.258544 0.596748
83 3 0.863508 0.280648 0.919212
90 3 0.86155 0.383866 0.712059
78 2 0.914794 0.383479 0.849668
88 3 0.863658 0.486604 0.919337
118 3 0.655238 0.533457 0.107004
112 2 0.601071 0.636033 0.175843
124 3 0.652268 0.636532 0.314599
98 1 0.605068 0.513724 0.42544
127 3 0.652582 0.740131 0.108091
103 1 0.856429 0.506445 0.103684
99 1 0.854036 0.632745 0.340839
1 3 0.943756 0.633706 0.17341
121 3 0.657006 0.531009 0.605102
107 1 0.660986 0.509128 0.925423
126 3 0.656841 0.737006 0.604912
111 2 0.605436 0.633993 0.674617
113 3 0.657759 0.633759 0.812593
108 1 0.857788 0.508311 0.598407
101 1 0.861125 0.633007 0.837648
119 3 0.949534 0.63313 0.672922
97 1 0.602835 0.758479 0.426391
104 1 0.603386 0.886427 0.187954
123 3 0.694872 0.883947 0.355352
105 1 0.854336 0.760418 0.103626
114 3 0.902658 0.778792 0.420459
117 3 0.901809 0.883096 0.213863
109 2 0.850493 0.883086 0.352895
116 3 0.903638 0.985598 0.422024
106 1 0.659486 0.758888 0.925111
100 1 0.658955 0.884528 0.686223
125 3 0.569657 0.883134 0.851707
102 1 0.857289 0.757557 0.599052
115 3 0.861119 0.779478 0.919087
122 3 0.862109 0.883008 0.711557
110 2 0.913404 0.882342 0.849974
120 3 0.862045 0.985395 0.91874
