# LAMMPS data file written by OVITO Pro 3.6.0
127 atoms
3 atom types
0.0 10.0025 xlo xhi
0.0 12.353714 ylo yhi
0.0 10.615024 zlo zhi

Masses

1 7.01
2 30.974
3 32.066

Atoms  # atomic

22 3 1.52990238 0.372071629 1.0864264764
16 2 1.0397498725 1.6595485239 1.831972687
28 3 1.6469816425 1.6948430848 3.2367331181
31 3 1.5096073075 2.9455083827 1.0642198461
7 1 3.535903755 0.0695475802 1.1218488114
32 3 4.457294045 1.6442793334 1.7923786475
2 1 0.9446220965 2.6912689486 4.6663857804
25 3 1.6058113525 0.3641590752 6.5612418696
30 3 1.577774345 2.9009114752 6.4773194899
12 1 3.53572371 0.10567194 6.3540684462
3 1 3.560349865 1.60468568 3.6426091757
11 1 1.5987996 0.0850644626 9.8189396601
15 2 1.0621954825 1.6301590383 7.2421850442
17 3 1.54310568 1.6862325461 8.7164844975
5 1 3.600559915 1.6477754345 8.9302816959
23 3 4.4940132225 1.6464041722 7.1409071002
8 1 1.0506926075 4.6801180729 2.0560558436
9 1 3.5231705725 3.2091119321 1.1258931356
21 3 4.05297299 4.7227136788 2.2548327831
27 3 1.9896272825 4.7330660911 3.7595761252
18 3 4.077719175 3.4494287305 4.460072174
6 1 3.561950265 3.1781164636 6.3807440015
13 2 3.537744215 4.7233560719 3.7422099459
20 3 4.0779692375 6.010687193 4.4494996101
10 1 1.6019703925 3.2422693004 9.8224638481
4 1 1.591497775 4.7292487935 7.2925851781
29 3 0.6879729502 4.7582923751 9.0170807471
19 3 3.6314576375 3.4742844031 9.7522136192
26 3 3.6271765675 4.7443573857 7.5510822426
14 2 4.13859439 4.7489776747 9.0273454753
24 3 3.6125529125 6.0206072253 9.7513431873
54 3 1.5231907025 6.534855278 1.1555196676
48 2 1.0014503 7.8169978392 1.8892832016
60 3 1.5004650225 7.811735157 3.3605892181
63 3 1.52586137 9.0883556081 1.1480573057
39 1 3.538104305 6.2517452143 1.1378350376
64 3 4.4605648625 7.8151571358 1.8431290772
34 1 1.05990491 6.2423440379 4.5531128593
57 3 1.5852062025 6.5501244685 6.4089587353
62 3 1.58883711 9.0909128269 6.4017086739
44 1 3.5866664425 6.2828024513 6.3701395925
35 1 3.54232536 7.8276838018 3.6584255615
43 1 1.5848461125 6.2852237792 9.8470057836
47 2 1.0645560725 7.8249289236 7.146543678
49 3 1.568412005 7.8261766487 8.6125421825
37 1 3.60838187 7.830698108 8.9078946103
55 3 4.509026975 7.8220134471 7.1298037851
40 1 1.029077205 11.0095681482 2.1007981698
41 1 3.535703705 9.3915157497 1.141996127
53 3 4.09238284 10.9106396065 2.2349614581
33 1 1.0458513975 9.4319494556 4.5517753663
59 3 2.03230795 10.8252877965 3.7033908032
50 3 4.1128779625 9.606655679 4.4412623515
38 1 3.5940482875 9.3686243176 6.3586329065
45 2 3.5652010775 10.8887735327 3.722328006
52 3 4.0955936425 12.1654804598 4.4457843517
42 1 1.588537035 9.3737140478 9.8491606334
36 1 1.588256965 10.9165446818 7.2821506096
61 3 0.6912337653 10.8982488314 9.0266236537
51 3 3.6158537375 9.6323019892 9.7554830466
58 3 3.64167019 10.8933444069 7.5474625194
46 2 4.14011477 10.901979653 9.0248190996
56 3 3.6254761425 12.1794401566 9.7431802338
86 3 6.56164 0.3750340496 1.1359243333
80 2 6.0115325075 1.6477630807 1.8591896085
92 3 6.49114238 1.6484548887 3.3355483765
95 3 6.55475828 2.9282378906 1.1414972209
71 1 8.5755333475 0.0896898167 1.1270926333
96 3 9.47864907 1.6492949413 1.8519289321
66 1 6.0899921175 0.0826664832 4.5498965071
89 3 6.578624245 0.3755479641 6.4336174361
94 3 6.573743025 2.919750889 6.4279596283
76 1 8.637738895 0.1096327878 6.376084006
67 1 8.5235803625 1.6056616234 3.628586729
75 1 6.5908773075 0.0934486813 9.8393841963
79 2 6.0512024225 1.6448723117 7.1694721298
81 3 6.5595494775 1.6531863612 8.6353750991
69 1 8.6127026375 1.6486772556 8.9488579879
87 3 9.50097465 1.6508268018 7.1907127928
72 1 6.05823418 4.7213547702 2.017300391
73 1 8.57478316 3.2005137471 1.1227404735
85 3 9.04161984 4.708494554 2.2730057041
65 1 6.0555835175 3.1699506587 4.5587494371
91 3 6.9782341225 4.7173645206 3.7657540692
82 3 9.0306571 3.3931452095 4.4637874324
70 1 8.5803545525 3.1707536501 6.4122918528
77 2 8.537673885 4.6920023458 3.7571028246
84 3 9.0666761025 5.9690551768 4.4773640481
74 1 6.5843756825 3.207777731 9.8426960838
68 1 6.594428195 4.7367227905 7.3089641602
93 3 5.69830422 4.758082362 9.0304238323
83 3 8.6128626775 3.4792011812 9.7594318356
90 3 8.608971705 4.7443326783 7.5593831914
78 2 9.1327526175 4.7488047227 9.0314216446
88 3 8.6209046875 6.024251571 9.7574680561
118 3 6.540014595 6.5273071588 1.1444588126
112 2 6.0193744675 7.809190292 1.8750166093
124 3 6.5373439275 7.8009874259 3.3402189871
127 3 6.550737275 9.0797821306 1.1365506197
103 1 8.5593493025 6.244283571 1.1417944415
1 3 9.4430301675 7.8164295684 1.8569286084
98 1 6.066136155 6.2767367777 4.5416804785
121 3 6.58596608 6.5531634822 6.4028232514
126 3 6.5883166675 9.0944459891 6.4067720404
108 1 8.5870962375 6.2792692891 6.3843849548
99 1 8.5711522525 7.8248424476 3.6718429518
107 1 6.601069855 6.2854090849 9.8422820979
111 2 6.06719642 7.8242371156 7.150099711
113 3 6.58292532 7.8224087659 8.6108013186
101 1 8.62779641 7.8302533743 8.9113869532
119 3 9.5073462425 7.8242371156 7.1200591931
104 1 6.05699387 10.9060069638 1.9871431078
105 1 8.56310024 9.3962225147 1.1425162632
117 3 9.0263260175 10.9289725181 2.2671462109
97 1 6.0655059975 9.3379253383 4.5376786144
123 3 6.926671235 10.8490316348 3.7109805453
114 3 9.0438303925 9.6585412778 4.4632248361
102 1 8.5888366725 9.3784825814 6.3794701986
109 2 8.48816151 10.9326415712 3.7451715376
116 3 8.8724875675 12.2346736119 4.4638298925
106 1 6.6024602025 9.3641522731 9.841029525
100 1 6.59776903 10.9195342806 7.3105670288
125 3 5.7011549325 10.8973717177 9.0404337999
115 3 8.6204245675 9.6310542641 9.7602916525
122 3 8.613012715 10.9072423352 7.5636079709
110 2 9.136223485 10.9062663918 9.0342452409
120 3 8.6169837075 12.1780565406 9.7612151596
