# LAMMPS data file written by OVITO Pro 3.6.0
127 atoms
3 atom types
0.0 10.0025 xlo xhi
0.0 12.353714 ylo yhi
0.0 10.615024 zlo zhi

Masses

1 7.01
2 30.974
3 32.066

Atoms  # atomic

22 3 1.5135783 0.3616067979 1.0589951313
16 2 1.04862209 1.6502832384 1.8197441793
28 3 1.6916728125 1.6393996164 3.2080088631
31 3 1.5203499925 2.9390350366 1.065907635
7 1 3.5265714225 0.0808653117 1.1248422482
32 3 4.4575841175 1.6544587937 1.7725391676
2 1 0.9067976428 1.2517894859 4.8104635012
25 3 1.564651065 0.4047706746 6.4920743732
30 3 1.5773042275 2.9066312448 6.5169241444
12 1 3.5506174325 0.115411114 6.3662438787
3 1 3.5960887975 1.6693326654 3.6233110621
11 1 1.608261965 0.0585078072 9.8222409326
15 2 1.055123715 1.6629457953 7.2721512569
17 3 1.5527780975 1.6393872627 8.7327679443
5 1 3.616763965 1.6532851909 8.940514579
23 3 4.48836181 1.6525563218 7.138593025
8 1 1.0344085375 4.6523222164 2.0958834137
9 1 3.53012231 3.2310891893 1.1229421589
21 3 4.0898922175 4.7376122579 2.2387616367
27 3 2.02802688 4.8181831806 3.7100888833
18 3 4.0912525575 3.4787564475 4.4477693612
6 1 3.53760418 3.1916684879 6.3544505871
13 2 3.56105004 4.7569952351 3.7256717385
20 3 4.1121777875 6.0378283026 4.4443194784
10 1 1.607501775 3.237105448 9.8205425287
4 1 1.57887462 4.7338196677 7.2677778671
29 3 0.689828414 4.7544874312 9.0151169677
19 3 3.6299572625 3.4767551459 9.746789342
26 3 3.627966765 4.7523502387 7.5474306743
14 2 4.13655388 4.7533261821 9.0228765502
24 3 3.6115326575 6.023127383 9.7515979478
54 3 1.5220304125 6.5576725878 1.148630517
48 2 1.00061009 7.8327858857 1.889039056
60 3 1.4982044575 7.8343053925 3.3605892181
63 3 1.521760345 9.1109999659 1.150859672
39 1 3.5350335375 6.2606028272 1.1425268782
64 3 4.46327554 7.8334282788 1.8429698519
34 1 1.05038253 6.2249253012 4.5497266667
57 3 1.5871266825 6.5603533437 6.402175735
62 3 1.587056665 9.1011540558 6.4045110403
44 1 3.591837735 6.2856067443 6.360596686
35 1 3.542945515 7.8291538938 3.6601239653
43 1 1.5842859725 6.2838401632 9.846337037
47 2 1.0642359925 7.8294133218 7.1437943867
49 3 1.566611555 7.8294503829 8.6104722528
37 1 3.6056911975 7.8277579241 8.9076292347
55 3 4.5095771125 7.8309698897 7.1314384988
40 1 1.0438709025 10.9950154731 2.0811179153
41 1 3.536583925 9.4019052231 1.1414972209
53 3 4.083040505 10.9280954044 2.2454384868
33 1 1.05742429 9.4287004288 4.5503954132
59 3 2.016884095 10.8666356773 3.7234850436
50 3 4.105486115 9.6336608978 4.4472916851
38 1 3.590517405 9.3730593009 6.3636219678
45 2 3.5535181575 10.9142963059 3.7309580205
52 3 4.0823103225 12.1934245609 4.4530874882
42 1 1.5830456625 9.3722933707 9.8459973563
36 1 1.5811952 10.9229068445 7.2744653322
61 3 0.6888261635 10.9030050113 9.012134146
51 3 3.6104123775 9.6352668806 9.7505682905
58 3 3.6233556125 10.9106025454 7.5491290782
46 2 4.136293815 10.9056239986 9.0244688038
56 3 3.63142763 12.181367336 9.7496341684
86 3 6.563940575 0.3760371712 1.1381853334
80 2 6.01022218 1.653322252 1.8510372701
92 3 6.47333793 1.6530875315 3.3331812261
95 3 6.565741025 2.9281884757 1.1362109389
71 1 8.58210499 0.1000733604 1.1243327271
96 3 9.48853154 1.6537422783 1.86206628
66 1 6.0626252775 0.1145301707 4.5576773197
89 3 6.57156248 0.3804202689 6.4323224031
94 3 6.5732929125 2.9249394489 6.4345197131
76 1 8.58898671 0.1194847512 6.4053071671
67 1 8.47739882 1.6747188847 3.6058493476
75 1 6.58328541 0.0900280614 9.8415390462
79 2 6.0457410575 1.65401406 7.1700347261
81 3 6.549897065 1.650690911 8.637965165
69 1 8.59314775 1.6527169201 8.9627636693
87 3 9.4937028325 1.6501102864 7.2171972777
72 1 6.0610048725 4.7435420406 1.9977581318
73 1 8.5815948625 3.21023612 1.1254685346
85 3 9.0324275425 4.7156226469 2.2724324928
65 1 6.0780691375 3.2096802029 4.5539514462
91 3 6.94145493 4.7794295797 3.7270092316
82 3 8.90258509 3.3914898118 4.4630656108
70 1 8.6160834825 3.1906554833 6.3870280957
77 2 8.5035953675 4.7004646399 3.7528462
84 3 9.0533727775 5.9750837892 4.4727040525
74 1 6.5852759075 3.2142016622 9.8399043325
68 1 6.5954784575 4.738946459 7.3077009723
93 3 5.6973139725 4.7619614282 9.0313579544
83 3 8.614413065 3.479040583 9.7602810375
90 3 8.60751134 4.748359989 7.5622174028
78 2 9.134623085 4.7492494564 9.0316976352
88 3 8.6240254675 6.0248569029 9.7595379858
118 3 6.5493269225 6.5615763614 1.1379093428
112 2 6.022205175 7.8358990216 1.874454013
124 3 6.542735275 7.8396298433 3.3389557992
127 3 6.5463661825 9.1142984075 1.1413061504
103 1 8.5638104175 6.2529929394 1.146401362
1 3 9.441299735 7.8335765234 1.8590303832
98 1 6.069537005 6.3059533113 4.537031098
121 3 6.5877765325 6.5596738894 6.4052328619
126 3 6.58756648 9.1006351998 6.4037467585
108 1 8.5882965375 6.2776262451 6.3801283301
99 1 8.5756533775 7.8312416715 3.6749743839
107 1 6.602950325 6.2906099985 9.8405306189
111 2 6.067856585 7.8300680686 7.1498767955
113 3 6.5849558275 7.8309451823 8.6103342575
101 1 8.62955685 7.8280049984 8.9113763381
119 3 9.5068061075 7.8305622172 7.1174903573
104 1 6.066296195 10.925476417 2.0109313766
105 1 8.5637103925 9.4122823429 1.1476645498
117 3 9.0417698775 10.9535193478 2.2765935823
97 1 6.074378215 9.3697979204 4.5380182952
123 3 6.97002207 10.9224621108 3.753716632
114 3 9.0672162375 9.7020757659 4.4818966633
102 1 8.5882365225 9.3797797214 6.3824105603
109 2 8.5317824125 10.9785603261 3.7605845525
116 3 8.9815948375 12.2901417878 4.4629170004
106 1 6.60265025 9.3690319902 9.8415178161
100 1 6.5937780325 10.9171376601 7.3077965075
125 3 5.6964737625 10.8958151497 9.028534358
115 3 8.6245556 9.6330185046 9.759622906
122 3 8.6056608775 10.9102566414 7.5618246469
110 2 9.133622835 10.9085271214 9.0317400953
120 3 8.6134428225 12.1781677241 9.7603234976
