# LAMMPS data file written by OVITO Pro 3.6.0
127 atoms
3 atom types
0.0 10.0025 xlo xhi
0.0 12.353714 ylo yhi
0.0 10.615024 zlo zhi

Masses

1 7.01
2 30.974
3 32.066

Atoms  # atomic

22 3 1.51625897 0.3626753941 1.0603050253
16 2 1.05142279 1.6518768675 1.8187463671
28 3 1.7062564575 1.6518768675 3.2011834027
31 3 1.51625897 2.9410857531 1.0603050253
7 1 3.5278117325 0.0759949835 1.1241310416
32 3 4.4590044725 1.6518768675 1.7672104256
2 1 0.982361529 1.6518768675 4.8614580765
25 3 1.5609201325 0.4097961654 6.4909279506
30 3 1.5609201325 2.8939686879 6.4909279506
12 1 3.5447159575 0.1128895974 6.3597793291
3 1 3.6120927975 1.6518768675 3.613513395
11 1 1.6096523125 0.0604042258 9.8223364678
15 2 1.0493522725 1.6518768675 7.2797622292
17 3 1.5595998025 1.6518768675 8.7332774655
5 1 3.622445385 1.6518768675 8.9435504759
23 3 4.48600122 1.6518768675 7.1384125696
8 1 1.03753932 4.6560653917 2.091138498
9 1 3.5278117325 3.2277660402 1.1241310416
21 3 4.0872115475 4.7328807854 2.2419249139
27 3 2.0234157275 4.806718934 3.7157466911
18 3 4.08634133 3.4706400574 4.4503169669
6 1 3.5447159575 3.1908778502 6.3597793291
13 2 3.5573791225 4.7501265701 3.7281238091
20 3 4.10962715 6.0304037205 4.4462195677
10 1 1.6096523125 3.2433564273 9.8223364678
4 1 1.576414005 4.7329796151 7.2656654773
29 3 0.6894313148 4.7521772867 9.010839113
19 3 3.6310375325 3.4764215956 9.7489017317
26 3 3.6217052 4.7475693513 7.5482904913
14 2 4.135093515 4.7524614221 9.0231843859
24 3 3.6097522125 6.022522051 9.7503029149
54 3 1.5213702475 6.5520145868 1.149086963
48 2 1.0002049887 7.8287338675 1.8884976898
60 3 1.497714335 7.8287338675 3.360079697
63 3 1.5213702475 9.105465502 1.149086963
39 1 3.5349735225 6.2577985341 1.1422296575
64 3 4.4627154 7.8287338675 1.8423223354
34 1 1.0524330425 6.2260000743 4.5490685352
57 3 1.586416505 6.558265566 6.4026746411
62 3 1.586416505 9.0992145227 6.4026746411
44 1 3.5906474375 6.2847790455 6.3620297142
35 1 3.54232536 7.8287338675 3.6601345804
43 1 1.58247552 6.2842107747 9.845424145
47 2 1.063645845 7.8287338675 7.1431256402
49 3 1.5661614425 7.8287338675 8.6097716612
37 1 3.6048509875 7.8287338675 8.9078627652
55 3 4.509106995 7.8287338675 7.1320754002
40 1 1.03753932 11.001414697 2.091138498
41 1 3.534983525 9.3996692009 1.1422296575
53 3 4.0872115475 10.9245869496 2.2419249139
33 1 1.0524330425 9.4314800144 4.5490685352
59 3 2.0234157275 10.850748801 3.7157466911
50 3 4.10962715 9.6270763682 4.4462195677
38 1 3.5906474375 9.3727010432 6.3620297142
45 2 3.5573791225 10.9073535186 3.7281238091
52 3 4.08634133 12.1868276776 4.4503169669
42 1 1.58247552 9.3732693141 9.845424145
36 1 1.576414005 10.9244881199 7.2656654773
61 3 0.6894313148 10.9052904484 9.010839113
51 3 3.6097522125 9.6349580377 9.7503029149
58 3 3.6217052 10.9098983837 7.5482904913
46 2 4.135093515 10.9050186666 9.0231843859
56 3 3.6310375325 12.1810461394 9.7489017317
86 3 6.56676128 0.3757184454 1.1364763145
80 2 6.0115925225 1.6518768675 1.8492964062
92 3 6.4709273275 1.6518768675 3.3324381745
95 3 6.56676128 2.9280402311 1.1364763145
71 1 8.5830752325 0.0970622661 1.1268909478
96 3 9.4920224125 1.6518768675 1.8666307404
66 1 6.0729478575 0.1025549745 4.5553526294
89 3 6.5705122175 0.3795308015 6.4346789385
94 3 6.5705122175 2.9242352872 6.4346789385
76 1 8.60219001 0.1158173041 6.3952335093
67 1 8.4809897175 1.6518768675 3.6097981366
75 1 6.5833554275 0.0882811227 9.8408384546
79 2 6.0437805675 1.6518768675 7.170448712
81 3 6.54607611 1.6518768675 8.6392177378
69 1 8.5855558525 1.6518768675 8.9687505429
87 3 9.489311735 1.6518768675 7.2316761704
72 1 6.06339547 4.7386129087 2.0033097894
73 1 8.5830752325 3.2067029578 1.1268909478
85 3 9.0361284675 4.7099275848 2.2752773193
65 1 6.0729478575 3.2012055551 4.5553526294
91 3 6.951637475 4.7620602579 3.7373482649
82 3 8.9294618075 3.379951443 4.4649126249
70 1 8.60219001 3.18795002 6.3952335093
77 2 8.5138979425 4.6900875201 3.7570709795
84 3 9.058484055 5.9658308575 4.4770349823
74 1 6.5833554275 3.2154864485 9.8408384546
68 1 6.5947982875 4.7398112189 7.3071489911
93 3 5.6954935175 4.762443223 9.0279080716
83 3 8.613452825 3.4794606092 9.7609179389
90 3 8.605570855 4.7477299496 7.5620051023
78 2 9.1339929275 4.7485947096 9.0312518042
88 3 8.6258059125 6.0246592435 9.7592938402
118 3 6.5472364 6.5525334427 1.1382171784
112 2 6.02170505 7.8287338675 1.8734455858
124 3 6.542335175 7.8287338675 3.3377775315
127 3 6.5472364 9.104946646 1.1382171784
103 1 8.5634703325 6.2487062006 1.1475265545
1 3 9.4408496225 7.8287338675 1.858520862
98 1 6.0714474825 6.2981951789 4.5369780229
121 3 6.5869363225 6.5582408586 6.4045535004
126 3 6.5869363225 9.0992392301 6.4045535004
108 1 8.58770639 6.2776262451 6.3806272363
99 1 8.57506323 7.8287338675 3.6746665482
107 1 6.60305035 6.289424042 9.8402864734
111 2 6.06747649 7.8287338675 7.1499935608
113 3 6.58508586 7.8287338675 8.6102917974
101 1 8.62979691 7.8287338675 8.9112595729
119 3 9.5062659725 7.8287338675 7.1173099019
104 1 6.06339547 10.9188548263 2.0033097894
105 1 8.5634703325 9.4087738881 1.1475265545
117 3 9.0361284675 10.9475525039 2.2752773193
97 1 6.0714474825 9.3592725561 4.5369780229
123 3 6.951637475 10.8954198309 3.7373482649
114 3 9.058484055 9.6916368776 4.4770349823
102 1 8.5876963875 9.3798538436 6.3806272363
109 2 8.5138979425 10.9673802149 3.7570709795
116 3 8.9294618075 12.277516292 4.4649126249
106 1 6.60305035 9.3680560468 9.8402864734
100 1 6.5947982875 10.9176688698 7.3071489911
125 3 5.6954935175 10.8950368657 9.0279080716
115 3 8.6258059125 9.6328208452 9.7593044553
122 3 8.6055608525 10.9097501391 7.5620051023
110 2 9.1339929275 10.9088853791 9.0312518042
120 3 8.613452825 12.1780071258 9.7609073239
