# LAMMPS data file written by OVITO Pro 3.6.0
127 atoms
3 atom types
0.0 10.0025 xlo xhi
0.0 12.353714 ylo yhi
0.0 10.615024 zlo zhi

Masses

1 7.01
2 30.974
3 32.066

Atoms  # atomic

22 3 1.5079869025 0.3560772755 1.0655679542
16 2 1.0370892075 1.6405485118 1.8366326825
28 3 1.6345785425 1.595791006 3.2453843626
31 3 1.53310318 2.9281884757 1.0940905237
7 1 3.52192026 0.0990005639 1.1262434314
32 3 4.4571840175 1.6610062622 1.7986096666
2 1 0.980152977 0.4784136345 4.6317914172
25 3 1.5789246325 0.4007458346 6.4695599073
30 3 1.6108526125 2.9429141028 6.565402959
12 1 3.563950765 0.1286169872 6.3848944759
3 1 3.54992726 1.706628528 3.6479166877
11 1 1.600179945 0.0622859435 9.822432003
15 2 1.063405785 1.6721740196 7.2333533442
17 3 1.542365495 1.6118631879 8.7101685582
5 1 3.596598925 1.6565712788 8.9272776441
23 3 4.4955236 1.6589555456 7.1415652317
8 1 1.02769686 4.6464912634 2.1019552074
9 1 3.5375341625 3.234857072 1.1221991072
21 3 4.0928529575 4.749916557 2.234027336
27 3 2.03298812 4.8354166116 3.7019259299
18 3 4.0963538325 3.495755158 4.4453597507
6 1 3.5364738975 3.1996736946 6.3542064415
13 2 3.5659812725 4.7721038273 3.7214151139
20 3 4.1126178975 6.0545675851 4.4404449946
10 1 1.59607892 3.2127933388 9.8198631672
4 1 1.5903874975 4.7409477606 7.2852077365
29 3 0.6919239378 4.7594412705 9.029415405
19 3 3.623765715 3.4782870064 9.7425645624
26 3 3.6442408325 4.7663593503 7.5475474396
14 2 4.1406649075 4.7557598637 9.025424156
24 3 3.61686399 6.0256351869 9.7562473284
54 3 1.5270716725 6.5723240926 1.1476433198
48 2 1.001710365 7.842619442 1.8891027462
60 3 1.501195205 7.8487345305 3.3603450726
63 3 1.5237908525 9.1258367764 1.1568040855
39 1 3.53592376 6.2678544573 1.1415290659
64 3 4.4594645875 7.8450284163 1.8429698519
34 1 1.0445710775 6.2263212709 4.5521150471
57 3 1.58903716 6.567901463 6.4017192889
62 3 1.5846860725 9.1087392362 6.410126388
44 1 3.594438385 6.2896217014 6.3582826107
35 1 3.541945265 7.8303151429 3.6576931248
43 1 1.5896873225 6.2835436741 9.8497126147
47 2 1.06454607 7.8332553268 7.1474034949
49 3 1.5689621425 7.8316246366 8.6131578539
37 1 3.609202075 7.8266090287 8.9080750657
55 3 4.5087168975 7.8364055239 7.1294428743
40 1 1.0514928075 10.9724575914 2.0492091532
41 1 3.5382743475 9.4070690756 1.1366567699
53 3 4.0424203525 10.9368418339 2.2576245344
33 1 1.0593347675 9.4100833818 4.5540682115
59 3 1.98157527 10.9404861795 3.7713906469
50 3 4.0691470325 9.6501407522 4.450370042
38 1 3.5854261325 9.3750606026 6.3724642828
45 2 3.53320308 10.9396090658 3.7459252043
52 3 4.076558885 12.2119180707 4.4623331741
42 1 1.585376245 9.3722686632 9.8473454643
36 1 1.5937883475 10.9298125706 7.2974256291
61 3 0.687675876 10.8981005868 9.0187260759
51 3 3.613243085 9.637367012 9.7517040981
58 3 3.6280167775 10.9138886333 7.5518359093
46 2 4.139214545 10.9094042351 9.0282689824
56 3 3.631487645 12.1837886639 9.7532114315
86 3 6.551777535 0.3758073921 1.1423676528
80 2 6.011962615 1.6571024885 1.8618645946
92 3 6.4965937425 1.6564600954 3.3362701981
95 3 6.5599495775 2.9293497248 1.1358394131
71 1 8.5722125175 0.1038330897 1.1230907692
96 3 9.4759183875 1.6546688069 1.8493282512
66 1 6.0556835425 0.138791506 4.558717592
89 3 6.5744432 0.3851517414 6.4270255062
94 3 6.579904565 2.9293744323 6.4334051356
76 1 8.5818549275 0.1356091893 6.41103928
67 1 8.541954955 1.6998834001 3.6372698187
75 1 6.5847557775 0.0977939766 9.8431206848
79 2 6.05279282 1.6601415022 7.1692916744
81 3 6.5619900875 1.6508762167 8.6347594277
69 1 8.61747383 1.6554717983 8.9451851896
87 3 9.502375 1.6537052172 7.1850974451
72 1 6.0559836175 4.7539562215 1.984128441
73 1 8.573362805 3.2146587497 1.1281647507
85 3 9.0248656525 4.7320036717 2.2657662578
65 1 6.093543005 3.223886974 4.548559014
91 3 6.9234804375 4.8158483286 3.7071272916
82 3 8.8667861425 3.4311205264 4.4643606437
70 1 8.6421299925 3.195164589 6.3743749871
77 2 8.4846906425 4.7314106934 3.743144068
84 3 9.04149981 6.0054121571 4.4606772304
74 1 6.5923376725 3.2091613469 9.8393523512
68 1 6.598549225 4.737735795 7.3114162307
93 3 5.70174508 4.7593547945 9.0425461897
83 3 8.61767388 3.479472963 9.7615973004
90 3 8.6147631525 4.7507566096 7.5639476517
78 2 9.1368536425 4.7514978324 9.0349670626
88 3 8.619974455 6.0267470212 9.7603978027
118 3 6.5510073425 6.5825159066 1.1358712581
112 2 6.018244185 7.8520082647 1.8749210741
124 3 6.535293415 7.8609770611 3.3403463673
127 3 6.537634 9.1348426339 1.1450214088
103 1 8.5629101925 6.2637777317 1.1412424603
1 3 9.44360031 7.843051822 1.8559520262
98 1 6.06435571 6.3236932446 4.5377635346
121 3 6.58836668 6.5639112133 6.4072391014
126 3 6.585145875 9.1053419648 6.4027701763
108 1 8.5888966875 6.2796151931 6.3792578982
99 1 8.5692517775 7.8336629994 3.6704311536
107 1 6.6022201425 6.2940072699 9.84101891
111 2 6.0668863425 7.8340830257 7.1502483213
113 3 6.5822351475 7.8360472662 8.6110348491
101 1 8.6272062625 7.8271772995 8.9113763381
119 3 9.5074262625 7.833811244 7.1209720851
104 1 6.0551634125 10.9392508081 2.0185635789
105 1 8.5575688575 9.4134559457 1.1401066527
117 3 9.0406295925 10.9464653771 2.271615136
97 1 6.0632254275 9.3833128836 4.5428693612
123 3 6.9775139425 10.9413015247 3.7667943415
114 3 9.0648756525 9.6822727624 4.4748589024
102 1 8.586566105 9.3779019568 6.3845441801
109 2 8.5367236475 10.9605733185 3.7559033269
116 3 9.037518815 12.2544272006 4.4645410991
106 1 6.60064975 9.3730963621 9.8423776331
100 1 6.5950783575 10.9223879885 7.3092295358
125 3 5.6987743375 10.9005836833 9.0309970436
115 3 8.6198044125 9.6331049806 9.7568948448
122 3 8.60987193 10.9137403887 7.5589055153
110 2 9.1323725225 10.9086383048 9.0313897995
120 3 8.6126026125 12.1782294926 9.7594106055
