# LAMMPS data file written by OVITO Pro 3.6.0
134 atoms
3 atom types
0.0 10.0025 xlo xhi
0.0 12.353714 ylo yhi
0.0 10.615024 zlo zhi

Masses

1 7.01
2 30.974
3 32.066

Atoms  # atomic

22 3 1.4984045075 0.3198067712 1.0700899544
16 2 1.0269866825 1.5974587573 1.8534893406
28 3 1.590737585 1.5170237255 3.2748410542
31 3 1.5487971025 2.8860870184 1.1275490793
7 1 3.519339615 0.099366975 1.1361684788
32 3 4.456573865 1.6526057366 1.8389467578
2 1 1.0669366675 0.1823136405 4.5728355739
128 1 0.980152977 0.4784136345 4.6317914172
129 1 0.8885160735 0.8529164744 4.7270081825
130 1 0.9067976428 1.2517894859 4.8104635012
131 1 0.982361529 1.6518768675 4.8614580765
132 1 0.8868386543 2.1765761622 4.784722068
133 1 0.9446220965 2.6912689486 4.6663857804
134 1 1.0666165875 3.1204616804 4.5731221796
25 3 1.587216705 0.3754516051 6.4405915068
30 3 1.6384795175 2.9275213752 6.5588747193
12 1 3.5740432875 0.1243426022 6.3957218004
3 1 3.502215335 1.7139789878 3.6785728771
11 1 1.5951987 0.0494260979 9.8222303175
15 2 1.0750386925 1.6501844087 7.1999054036
17 3 1.541565295 1.5808677194 8.6847455757
5 1 3.5856661925 1.648269583 8.9136267232
23 3 4.508546855 1.6529516406 7.1427859595
8 1 1.0236458475 4.6209684903 2.1056704658
9 1 3.5470565425 3.2205267638 1.1312961828
21 3 4.09246286 4.750608365 2.2324775425
27 3 2.0329081 4.8266084135 3.6993889391
18 3 4.10130507 3.4970275906 4.4449033047
6 1 3.55632886 3.1982159563 6.3564992867
13 2 3.5666214325 4.7710167005 3.7199290106
20 3 4.1066564075 6.0557288342 4.4394577974
10 1 1.5839058775 3.1734467597 9.8330257969
4 1 1.601620305 4.7207494382 7.2942623519
29 3 0.697846418 4.7418989966 9.0396058281
19 3 3.6140532875 3.4662668427 9.7438277503
26 3 3.6534431325 4.7607384105 7.5511459327
14 2 4.1430455025 4.7423684377 9.0312730342
24 3 3.6245759175 6.0148133335 9.760939169
54 3 1.5278118575 6.5600939157 1.1413273805
48 2 0.9996438485 7.8284250247 1.8814068538
60 3 1.49817445 7.8337988903 3.3529039407
63 3 1.525321235 9.1128653767 1.1528977566
39 1 3.532943015 6.261517002 1.1391088405
64 3 4.449051985 7.8408157998 1.8369935933
34 1 1.03953982 6.2159688585 4.5514144555
57 3 1.586456515 6.5576849415 6.4035981482
62 3 1.5801849475 9.0993627673 6.4150411441
44 1 3.5932480875 6.282814805 6.3598854794
35 1 3.5361938275 7.8200368529 3.6519079368
43 1 1.5975492875 6.267953287 9.8488209527
47 2 1.0640759525 7.8218775562 7.1532417581
49 3 1.5751236825 7.8191473854 8.6164697414
37 1 3.6161538125 7.8163677998 8.9136691833
55 3 4.5057361525 7.8284744395 7.1309608227
40 1 1.046321515 10.9281695267 2.0277349596
41 1 3.53460343 9.400484546 1.1307548166
53 3 4.0204548625 10.9240804474 2.2638024783
33 1 1.04554132 9.3611873818 4.5558727656
59 3 1.967711805 10.9111337551 3.7837465348
50 3 4.05857439 9.6341921075 4.4558898545
38 1 3.5798447375 9.3658570857 6.382272565
45 2 3.5240307875 10.9219185474 3.7533344911
52 3 4.0596846675 12.1964265134 4.46936032
42 1 1.58979735 9.3599643641 9.8461459666
36 1 1.600379995 10.9221656217 7.3112463903
61 3 0.6865736005 10.8808548021 9.0243201935
51 3 3.61906454 9.6326355395 9.7537315677
58 3 3.6286969475 10.9093548203 7.5566975903
46 2 4.14231532 10.9070693832 9.0323982268
56 3 3.632908 12.1802060869 9.7586993989
86 3 6.5370638575 0.3658712999 1.1459024558
80 2 6.0134729925 1.6480842773 1.8782648067
92 3 6.526091115 1.6462682814 3.3420023111
95 3 6.5484467025 2.9195285222 1.1390982254
71 1 8.555238275 0.0843620305 1.1285256615
96 3 9.466305985 1.6327780257 1.8436173683
66 1 6.0567238025 0.1375128966 4.5540575965
89 3 6.58536593 0.3819496587 6.4173021442
94 3 6.5879565775 2.9271013489 6.4300826331
76 1 8.598409065 0.1215023598 6.3952547393
67 1 8.6291667525 1.68019158 3.6766409427
75 1 6.5883166675 0.0984105505 9.8444369477
79 2 6.0664462325 1.6552864926 7.1645998338
81 3 6.58152497 1.6425745209 8.627339526
69 1 8.640859675 1.6425992283 8.9248468036
87 3 9.5142079575 1.6445387614 7.150980758
72 1 6.05035221 4.7538697455 1.9738000227
73 1 8.56141982 3.1966223272 1.1391406855
85 3 9.02081464 4.7291870249 2.2591318678
65 1 6.1119276 3.2196867113 4.5400351498
91 3 6.9165587075 4.8267443044 3.6948457088
82 3 8.859394295 3.4467232671 4.4654221461
70 1 8.6535528475 3.1930397502 6.3686428742
77 2 8.476858685 4.7404659658 3.7352358752
84 3 9.03369786 6.0161969494 4.4497331406
74 1 6.6032504 3.1897536622 9.8417513467
68 1 6.603630495 4.7277292867 7.3184433766
93 3 5.704285715 4.7382917121 9.0531505987
83 3 8.625215765 3.4629066325 9.7646438123
90 3 8.624295535 4.7390576424 7.5665164875
78 2 9.142345015 4.7369080962 9.0391812271
88 3 8.6195843575 6.0116631364 9.7612257746
118 3 6.54747646 6.5872844402 1.1299374597
112 2 6.00722143 7.852774195 1.8701336983
124 3 6.52106986 7.8619777119 3.3360791277
127 3 6.522130125 9.1383881498 1.1421022772
103 1 8.55885918 6.2564890404 1.1327716711
1 3 9.4423499975 7.8317234663 1.8423117204
98 1 6.0572239275 6.3267569657 4.5379970652
121 3 6.587586485 6.5568943038 6.410572219
126 3 6.581224895 9.0991280467 6.4084916743
108 1 8.5902370225 6.2716099864 6.3788969873
99 1 8.5525676075 7.8193450449 3.6522476175
107 1 6.5985792325 6.2826912678 9.8406686142
111 2 6.0637255525 7.8263866619 7.153645129
113 3 6.5759535775 7.8261519413 8.615418854
101 1 8.621294785 7.8143047296 8.914847451
119 3 9.5070661725 7.8223346437 7.1312368133
104 1 6.039729555 10.9352234974 2.0211854898
105 1 8.5427451525 9.3946288856 1.1275703094
117 3 9.0298869075 10.9123444191 2.2632929572
97 1 6.0530028725 9.3742081963 4.5496842066
123 3 6.971242375 10.9259335045 3.767887689
114 3 9.0469511725 9.630411871 4.4597006481
102 1 8.582885185 9.3607797092 6.3842894195
109 2 8.53009199 10.9193119137 3.7494387773
116 3 9.0638353925 12.1919668226 4.4671205499
106 1 6.59340794 9.3692420033 9.8396389569
100 1 6.6020601025 10.9225609405 7.3089535452
125 3 5.7014750125 10.9015843342 9.0305405976
115 3 8.610972205 9.6223078346 9.7513962624
122 3 8.6163235425 10.9047715924 7.5543835151
110 2 9.1310321875 10.8968528617 9.0296595506
120 3 8.6134028125 12.1676176523 9.7571708354
