# LAMMPS data file written by OVITO Pro 3.6.0
127 atoms
3 atom types
0.0 10.0025 xlo xhi
0.0 12.353714 ylo yhi
0.0 10.615024 zlo zhi

Masses

1 7.01
2 30.974
3 32.066

Atoms  # atomic

22 3 1.52186037 0.3656551099 1.0687312313
16 2 1.0471917325 1.6540387675 1.8211984376
28 3 1.6837508325 1.6685790888 3.2126157836
31 3 1.5131081825 2.9424323079 1.059753044
7 1 3.5310525425 0.0720913334 1.122560018
32 3 4.457294045 1.6486772556 1.7755644495
2 1 0.8868386543 2.1765761622 4.784722068
25 3 1.5841259325 0.3874730042 6.5302990747
30 3 1.5677618425 2.8976624484 6.4900150586
12 1 3.536623935 0.1107584582 6.3543444368
3 1 3.58901703 1.6298872566 3.6273872313
11 1 1.60620145 0.0695658637 9.819799477
15 2 1.05734427 1.6362864804 7.2675124915
17 3 1.549847365 1.6690608837 8.731313686
5 1 3.61378322 1.6500485178 8.9388374052
23 3 4.4894320775 1.650690911 7.1388265555
8 1 1.04578138 4.6652812624 2.0770842062
9 1 3.52628135 3.2211197421 1.1250333186
21 3 4.0802898175 4.7287175838 2.2465530643
27 3 2.0138133275 4.7843587116 3.7271578419
18 3 4.0815101225 3.4623630691 4.4537986948
6 1 3.5524578925 3.1865787577 6.3678679774
13 2 3.55180773 4.7409724681 3.732061983
20 3 4.102845455 6.0221143784 4.4474933705
10 1 1.6073117275 3.2451230084 9.822432003
4 1 1.582975645 4.7332266894 7.2770978581
29 3 0.6887141355 4.755142178 9.0126648972
19 3 3.6314976475 3.4758286173 9.7499844642
26 3 3.6239357575 4.7462104428 7.5492776885
14 2 4.1366439025 4.7513619415 9.0247766395
24 3 3.6106924475 6.0219290727 9.7505046004
54 3 1.5219303875 6.5448741401 1.1514328833
48 2 1.000750125 7.8235947225 1.8891664363
60 3 1.498474525 7.8215316522 3.3606847533
63 3 1.522480525 9.0981768107 1.148641132
39 1 3.537024035 6.2551548393 1.1409133945
64 3 4.4631855175 7.8227423162 1.8431078472
34 1 1.058684605 6.2307315468 4.550735094
57 3 1.58687662 6.5550783078 6.405285937
62 3 1.587616805 9.0958543125 6.4020271246
44 1 3.5901473125 6.2840501764 6.3643968646
35 1 3.54304554 7.8284991469 3.659975355
43 1 1.583375745 6.2852608403 9.8460504314
47 2 1.0644160375 7.8274120201 7.1441765276
49 3 1.5668816225 7.8276714481 8.6107907035
37 1 3.6061113025 7.8299321778 8.9076080046
55 3 4.5096571325 7.8255466093 7.1311412781
40 1 1.0335483225 11.00594851 2.0967856907
41 1 3.53516357 9.3961978073 1.1426754885
53 3 4.0904523575 10.9186448132 2.2380928902
33 1 1.0497523725 9.4329006916 4.5502149578
59 3 2.028967115 10.8366779208 3.7087089302
50 3 4.1125578825 9.617712253 4.4438311873
38 1 3.5923878725 9.3711938901 6.3601190099
45 2 3.561870245 10.8987553337 3.7251303723
52 3 4.0921127725 12.1766976321 4.4473553752
42 1 1.585056165 9.3735410958 9.8469845535
36 1 1.5808851225 10.9210414337 7.2710791395
61 3 0.6898974313 10.9016584564 9.0175478082
51 3 3.612402875 9.6339326795 9.7525214549
58 3 3.63118757 10.9023626181 7.5474412894
46 2 4.1374441025 10.9035732821 9.0232480761
56 3 3.62934711 12.1804655149 9.745908295
86 3 6.56516088 0.3757135039 1.136264014
80 2 6.010082145 1.6501844087 1.8521518476
92 3 6.4756084975 1.6505673738 3.3335845971
95 3 6.5626502525 2.9279043403 1.1387797747
71 1 8.58082467 0.0926329655 1.1252562341
96 3 9.486791105 1.6498508584 1.8601343457
66 1 6.0795295025 0.0920545646 4.553420695
89 3 6.5742731575 0.3783534926 6.4343180276
94 3 6.5721326225 2.922777549 6.4313352059
76 1 8.6202045125 0.1121173668 6.3845972552
67 1 8.4801295025 1.6225738579 3.6068046998
75 1 6.586226145 0.090237951 9.8397981823
79 2 6.04667129 1.6489119762 7.1698755007
81 3 6.55171752 1.6532851909 8.6373919537
69 1 8.5968986875 1.6505550201 8.9600356082
87 3 9.4955833025 1.6529516406 7.2107645732
72 1 6.066136155 4.7302370906 2.0125342452
73 1 8.5812547775 3.2030091973 1.1235047552
85 3 9.0428101375 4.7035036535 2.2763706668
65 1 6.0600046225 3.1857757663 4.5581125356
91 3 6.97442317 4.7285940466 3.7577715711
82 3 8.996548575 3.3678818644 4.4624393243
70 1 8.5855958625 3.1819955298 6.4081944536
77 2 8.5357233975 4.6787221032 3.7606482426
84 3 9.06878663 5.9551201874 4.4822894192
74 1 6.5833754325 3.2128304 9.8416451964
68 1 6.59360799 4.7401077081 7.3079557329
93 3 5.6967738375 4.7611584367 9.0286935834
83 3 8.61343282 3.4792011812 9.7599732018
90 3 8.6061409975 4.7466675302 7.5613575858
78 2 9.13356282 4.7489159062 9.0316657901
88 3 8.62399546 6.0243009858 9.7593044553
118 3 6.5458460525 6.5406491699 1.1420810472
112 2 6.0220951475 7.8196538877 1.8747193886
124 3 6.5424051925 7.8149100615 3.339327325
127 3 6.5497670325 9.0934206308 1.1379305728
103 1 8.5634703325 6.244888903 1.1469214981
1 3 9.441539795 7.8226681939 1.8589242329
98 1 6.0742081725 6.2853349626 4.5385065863
121 3 6.587706515 6.5562766181 6.403523843
126 3 6.58796658 9.0972379285 6.4054557774
108 1 8.5882765325 6.2779474417 6.3829731566
99 1 8.5754333225 7.8262754784 3.6747408534
107 1 6.602350175 6.288040426 9.8417407316
111 2 6.067896595 7.826856103 7.1498661805
113 3 6.5847557775 7.8258060373 8.6103767176
101 1 8.6293568 7.8297098109 8.9113975682
119 3 9.5069861525 7.826337247 7.1177451178
104 1 6.0603147 10.9127520916 1.9961552632
105 1 8.5637504025 9.4032641317 1.1458918408
117 3 9.0313472725 10.9398932013 2.2715089858
97 1 6.06891685 9.3495378295 4.5371797083
123 3 6.9387642575 10.8732943291 3.7242599404
114 3 9.05178238 9.6788631373 4.4712179492
102 1 8.5884765825 9.3797550139 6.38008587
109 2 8.500864685 10.9533711032 3.7515723971
116 3 8.8965335775 12.261407049 4.4628108502
106 1 6.60293032 9.3663759417 9.8407535344
100 1 6.5956785075 10.9186695206 7.3082423385
125 3 5.6982742125 10.8957657349 9.0333005038
115 3 8.6230852325 9.6323637578 9.7598139764
122 3 8.6083215425 10.9087371346 7.5625570835
110 2 9.13480313 10.9077735449 9.0322071563
120 3 8.6148431725 12.1784642132 9.7603022675
