# LAMMPS data file written by OVITO Pro 3.6.0
127 atoms
3 atom types
0.0 10.0025 xlo xhi
0.0 12.353714 ylo yhi
0.0 10.615024 zlo zhi

Masses

1 7.01
2 30.974
3 32.066

Atoms  # atomic

22 3 1.548487025 0.4166845964 1.127835685
16 2 1.026676605 1.7053066806 1.8537653313
28 3 1.5904275075 1.7857540661 3.2751276599
31 3 1.49809443 2.9829648436 1.0703765601
7 1 3.546746465 0.0822442333 1.1315721734
32 3 4.4562637875 1.650172055 1.8392333634
3 1 3.5019052575 1.5887988038 3.6788488677
25 3 1.63816944 0.3752465335 6.5591613249
30 3 1.5869066275 2.9273237157 6.4408781125
12 1 3.5560187825 0.1045577586 6.3567858924
11 1 1.5835958 0.1293211489 9.8333017876
15 2 1.074728615 1.6525933829 7.2001813942
17 3 1.5412552175 1.7219100722 8.6850321814
5 1 3.585356115 1.6544958549 8.9139133289
23 3 4.5082367775 1.6498137973 7.1430619501
8 1 1.0460114375 4.7283222649 2.0280215652
9 1 3.5190295375 3.2034045162 1.1364550845
21 3 4.020144785 4.7323989906 2.264078469
27 3 1.9674017275 4.7453580365 3.7840331405
18 3 4.05937459 3.4600529245 4.4696363106
6 1 3.57373321 3.1784253065 6.396008406
13 2 3.52372071 4.7345732442 3.7536210967
20 3 4.0582643125 6.0222873304 4.4561764602
2 1 1.0666165875 3.1204616804 4.5731221796
10 1 1.5948886225 3.2533505819 9.8225169232
4 1 1.6000699175 4.7343261699 7.311522381
29 3 0.6862625228 4.7756369895 9.0246067992
19 3 3.6325979225 3.4762857047 9.7589753895
26 3 3.62838687 4.7471246176 7.5569735809
14 2 4.1420052425 4.7494224084 9.0326742174
24 3 3.61874446 6.0238438984 9.7540075583
54 3 1.5250111575 6.5436140612 1.1531737473
48 2 0.9993317705 7.828066767 1.8816828444
60 3 1.4978643725 7.8226929014 3.3531905464
63 3 1.5274917775 9.0963978759 1.1416139861
39 1 3.5342933525 6.2560072456 1.1310414222
64 3 4.448731905 7.8156759918 1.837269584
34 1 1.0452312425 6.2952920561 4.5561593712
57 3 1.57987487 6.5571290243 6.4153277497
62 3 1.5861464375 9.0988068501 6.4038741388
44 1 3.57953466 6.2906223522 6.3825485556
35 1 3.53588375 7.8364549388 3.6521839274
43 1 1.5894872725 6.2965274275 9.8464325723
47 2 1.063765875 7.8346142354 7.1535177487
49 3 1.574813605 7.8373444062 8.616756347
37 1 3.615843735 7.8401116381 8.913955789
55 3 4.5054160725 7.8280173521 7.1312368133
40 1 1.02333577 11.0355109476 2.1059570715
41 1 3.5326329375 9.3949747896 1.1393954461
53 3 4.0921527825 10.9058834266 2.2327641482
33 1 1.0392297425 9.4405229331 4.5517010612
59 3 2.03258802 10.8298833781 3.6996649297
50 3 4.10634633 9.6007629574 4.439744403
38 1 3.59293801 9.3736769866 6.36016147
45 2 3.566311355 10.8854750911 3.7202156162
52 3 4.1009949925 12.1594642011 4.4451899103
42 1 1.59723921 9.3885385046 9.8491075583
36 1 1.6013102275 10.9357423534 7.2945489576
61 3 0.6975353403 10.9145804413 9.0398924337
51 3 3.62426584 9.6416784582 9.7612151596
58 3 3.653133055 10.8957410274 7.5514325384
46 2 4.142735425 10.9141233539 9.0315596399
56 3 3.61374321 12.1902249489 9.7441037409
86 3 6.548136625 0.3832443279 1.1393848311
80 2 6.013162915 1.6546811606 1.8785514123
92 3 6.525771035 1.6564971565 3.3422889167
95 3 6.53675378 2.9368978441 1.1461890615
71 1 8.5611097425 0.1061469403 1.1394272912
96 3 9.4659959075 1.6699874122 1.8438933589
66 1 6.1116175225 0.0830836681 4.5403217554
89 3 6.5876465 0.3756727366 6.4303692387
94 3 6.5850558525 2.9208256622 6.4175781348
76 1 8.65324277 0.1097356943 6.3689188648
67 1 8.6288466725 1.6225862116 3.6769275483
75 1 6.6029403225 0.1130231411 9.8420379523
79 2 6.0661261525 1.647491299 7.1648758244
81 3 6.5812148925 1.6602032707 8.6276261316
69 1 8.6405495975 1.6601785633 8.9251334092
87 3 9.51389788 1.6582266765 7.1512673636
72 1 6.0394194775 4.7212682942 2.0214614804
73 1 8.5549281975 3.2184142787 1.1288122672
85 3 9.02957683 4.7441473726 2.2635795628
65 1 6.056413725 3.1652562474 4.5543442021
91 3 6.9709322975 4.7305459335 3.7681742946
82 3 9.063525315 3.464524969 4.4674071556
70 1 8.5980989875 3.1812666607 6.395541345
77 2 8.5297819125 4.7371675242 3.7497147679
84 3 9.0466310925 6.0260799206 4.4599872538
74 1 6.58800659 3.2043681059 9.8447129384
68 1 6.601750025 4.7339308511 7.3092295358
93 3 5.701164935 4.7549074575 9.0308165882
83 3 8.613092735 3.4888617856 9.7574574411
90 3 8.616013465 4.7517201992 7.5546701207
78 2 9.13072211 4.7596389299 9.0299461562
88 3 8.6106621275 6.034183957 9.751682868
118 3 6.5218200475 6.5180912881 1.1423888829
112 2 6.0069113525 7.8037052429 1.8704203039
124 3 6.5207597825 7.7945140797 3.3363657333
127 3 6.5471663825 9.0691949977 1.1302240654
103 1 8.542435075 6.2618505523 1.127856915
1 3 9.44203992 7.8247683253 1.842587711
98 1 6.052692795 6.2822835953 4.5499708122
121 3 6.5809148175 6.5573637449 6.4087782799
126 3 6.5872764075 9.0995851341 6.4108482096
108 1 8.5825751075 6.2957120824 6.3845760252
99 1 8.55225753 7.8371467467 3.6525342232
107 1 6.5930978625 6.2872374346 9.8399255625
111 2 6.063415475 7.8301051298 7.1539211196
113 3 6.5756435 7.8303398503 8.6157054596
101 1 8.620974705 7.8421747083 8.9151340566
119 3 9.5067460925 7.834157148 7.131523419
104 1 6.0500421325 10.9026220461 1.9740866283
105 1 8.5585491025 9.3999903975 1.1330476618
117 3 9.0205045625 10.9273047667 2.2594184734
97 1 6.05691385 9.3297348259 4.5382836708
123 3 6.91624863 10.8297351335 3.6951323145
114 3 9.0333877825 9.6402948422 4.4500197463
102 1 8.589926945 9.3848694515 6.379183593
109 2 8.4765486075 10.9160258258 3.7355224808
116 3 8.8590842175 12.2097685245 4.4657087517
106 1 6.598269155 9.3738005238 9.8409552199
100 1 6.6033204175 10.928762505 7.3187193672
125 3 5.7039756375 10.9182000795 9.0534372043
115 3 8.61927428 9.6448163015 9.7615123803
122 3 8.623975455 10.9174341492 7.5667924781
110 2 9.1420349375 10.9195836955 9.0394678328
120 3 8.6249056875 12.1935851591 9.764930418
