# LAMMPS data file written by OVITO Pro 3.6.0
127 atoms
3 atom types
0.0 10.0025 xlo xhi
0.0 12.353714 ylo yhi
0.0 10.615024 zlo zhi

Masses

1 7.01
2 30.974
3 32.066

Atoms  # atomic

22 3 1.511637815 0.3604813745 1.0617677756
16 2 1.043600835 1.6476766048 1.826229959
28 3 1.6645660375 1.6227962248 3.2250035166
31 3 1.5259513925 2.9355265818 1.0772763257
7 1 3.5251110575 0.0879234827 1.1254154595
32 3 4.45691395 1.6572877942 1.7826234404
2 1 0.8885160735 0.8529164744 4.7270081825
25 3 1.572973145 0.4039281513 6.4865864058
30 3 1.5963489875 2.9296832751 6.5499580991
12 1 3.55684899 0.1206810849 6.3737274707
3 1 3.574113305 1.6862572536 3.6351786589
11 1 1.6049911475 0.0595180939 9.8225169232
15 2 1.0600949575 1.6720751899 7.2559951904
17 3 1.5452762225 1.6258228847 8.7256346482
5 1 3.6073716175 1.6547429292 8.9350053816
23 3 4.491342555 1.654619392 7.1395271471
8 1 1.0311477225 4.6495549845 2.0992165312
9 1 3.5333931275 3.2334240412 1.1218169664
21 3 4.09166266 4.7429367086 2.236224646
27 3 2.03110765 4.8271149158 3.7057367235
18 3 4.09414328 3.4864898725 4.4461664925
6 1 3.5348835 3.1950039907 6.3533572396
13 2 3.56393076 4.7639009613 3.7235062736
20 3 4.1132180475 6.0453887756 4.4424300041
10 1 1.6030106525 3.2269877562 9.8191519606
4 1 1.5842459625 4.7386993847 7.2762168111
29 3 0.6903945555 4.7575882134 9.0219105831
19 3 3.627806725 3.4774346001 9.7443691165
26 3 3.6366189275 4.7595277465 7.5471440687
14 2 4.13879444 4.7546727369 9.023662062
24 3 3.6139732675 6.0242268635 9.7538058728
54 3 1.5237508425 6.5640718116 1.1482802212
48 2 1.00117023 7.8371591005 1.8893681218
60 3 1.4994647725 7.8404698958 3.3607590585
63 3 1.522600555 9.1173991897 1.1532905125
39 1 3.5354136325 6.2638147928 1.1423570378
64 3 4.462695395 7.8385921313 1.8433307627
34 1 1.047841895 6.2246411658 4.5509155494
57 3 1.5882069525 6.5636517853 6.401740519
62 3 1.5867065775 9.1043783752 6.4068569606
44 1 3.5932981 6.2873239106 6.3592591929
35 1 3.5432755975 7.8294997978 3.6594446038
43 1 1.58663656 6.2836672112 9.8479186756
47 2 1.0646961075 7.8309698897 7.1450788046
49 3 1.5675417875 7.8303769115 8.6114912951
37 1 3.6070915475 7.8269672864 8.9075443145
55 3 4.50968714 7.8335765234 7.1304831466
40 1 1.0493922825 10.9852313317 2.0667133277
41 1 3.5381143075 9.4041041842 1.1396502067
53 3 4.0708274525 10.9316038592 2.2500772523
33 1 1.0607351175 9.421609397 4.5517541363
59 3 2.004360965 10.8933814681 3.7392377392
50 3 4.094083265 9.640776637 4.4483213424
38 1 3.5892870975 9.3738499386 6.3665410994
45 2 3.5466364375 10.9239445565 3.7359364668
52 3 4.0790695125 12.2009850338 4.4564418358
42 1 1.5840659175 9.3718362832 9.8465493375
36 1 1.587496775 10.9249946222 7.285006051
61 3 0.688296031 10.9004724999 9.0147242118
51 3 3.6114926475 9.63589692 9.7508867412
58 3 3.6257962225 10.9117143796 7.5500313552
46 2 4.1376641575 10.9068840775 9.0259761372
56 3 3.6315376575 12.1820714977 9.7508442811
86 3 6.5593294225 0.3759716965 1.1401703429
80 2 6.0102721925 1.6549035274 1.8550497492
92 3 6.4816900175 1.6543846715 3.334455029
95 3 6.563580485 2.9284973186 1.1360517136
71 1 8.5788141675 0.1026208198 1.1223689476
96 3 9.4826600725 1.6545576234 1.8556760356
66 1 6.0555135 0.1266663358 4.5589298925
89 3 6.57264275 0.3821016094 6.4296474171
94 3 6.5762936625 2.926360126 6.4339677319
76 1 8.57946433 0.1274927992 6.4130879796
67 1 8.4951932675 1.6936447745 3.6140123011
75 1 6.583585485 0.0930355731 9.8422396378
79 2 6.0484417325 1.6566454011 7.1696950453
81 3 6.555138375 1.6501102864 8.6364153715
69 1 8.6044805825 1.654100536 8.9547599412
87 3 9.4983639975 1.6513333041 7.2001070891
72 1 6.05855426 4.7484711725 1.9913466573
73 1 8.578604115 3.2131639503 1.1253199243
85 3 9.028516565 4.7230595828 2.2692161406
65 1 6.0843207 3.2172159685 4.5518178264
91 3 6.9318225225 4.7972683428 3.7169461888
82 3 8.8817098725 3.4091679766 4.4628214652
70 1 8.6296868825 3.1925579553 6.3794701986
77 2 8.493622875 4.7145602275 3.7481649744
84 3 9.04762134 5.9884999226 4.4672267002
74 1 6.58820664 3.2120891771 9.8393523512
68 1 6.596588735 4.738168175 7.3090915405
93 3 5.6997745875 4.7611090219 9.0366017763
83 3 8.61567338 3.4790776441 9.7603978027
90 3 8.610532095 4.749224749 7.5628118441
78 2 9.1354132825 4.7503365833 9.032928978
88 3 8.6216648775 6.0256104795 9.7598670515
118 3 6.550857305 6.5712122583 1.1373042864
112 2 6.021565015 7.8433853723 1.8751015295
124 3 6.541094865 7.8501922687 3.3399323814
127 3 6.5439255725 9.1239343044 1.143747606
103 1 8.56370039 6.2579467787 1.1442783572
1 3 9.442259975 7.838345057 1.8584890169
98 1 6.0672864425 6.3142302997 4.5373707788
121 3 6.58840669 6.561465178 6.4060396037
126 3 6.5874364475 9.1025006106 6.403056782
108 1 8.5887566525 6.2780956862 6.3797461893
99 1 8.574363055 7.8322423223 3.6739659566
107 1 6.6028202925 6.2921542128 9.8408596847
111 2 6.0678665875 7.8317481737 7.1499086406
113 3 6.5842156425 7.8333541565 8.6105040979
101 1 8.628856675 7.8273255441 8.9113763381
119 3 9.5073462425 7.8322793834 7.1184457094
104 1 6.0644457325 10.9321474226 2.0158249027
105 1 8.5623100425 9.4137153737 1.145074484
117 3 9.04378038 10.9537170072 2.275585155
97 1 6.0724077225 9.3776178214 4.5399502296
123 3 6.9798145175 10.9389913801 3.764374116
114 3 9.0702369925 9.6994073637 4.481737438
102 1 8.5880764825 9.3789890837 6.3841514242
109 2 8.53993445 10.9752989456 3.7598627308
116 3 9.01949431 12.28166714 4.4628745403
106 1 6.601910065 9.3704526673 9.842324558
100 1 6.593347925 10.9181753721 7.3085714043
125 3 5.6975940425 10.897359364 9.0296489356
115 3 8.62263512 9.6331049806 9.7587737041
122 3 8.60715125 10.9117885019 7.5606676093
110 2 9.1331927275 10.9084282917 9.0317719404
120 3 8.6131627525 12.1781677241 9.7597290562
