ITEM: TIMESTEP
2626
ITEM: NUMBER OF ATOMS
127
ITEM: BOX BOUNDS pp pp pp
0.0000000000000000e+00 1.0002500000000000e+01
0.0000000000000000e+00 1.2353714000000000e+01
0.0000000000000000e+00 1.0615024000000000e+01
ITEM: ATOMS id type xs ys zs
22 3 0.152148 0.0295988 0.100681
16 2 0.104693 0.13389 0.171568
28 3 0.168333 0.135067 0.302648
31 3 0.151273 0.238182 0.0998352
7 1 0.353017 0.0058356 0.105752
32 3 0.445618 0.133456 0.167269
2 1 0.0886617 0.176188 0.45075
25 3 0.158373 0.0313649 0.615194
30 3 0.156737 0.234558 0.611399
12 1 0.353574 0.0089656 0.598618
3 1 0.358812 0.131935 0.341722
11 1 0.16058 0.00563117 0.925085
15 2 0.105708 0.132453 0.684644
17 3 0.154946 0.135106 0.822543
5 1 0.361288 0.133567 0.842093
23 3 0.448831 0.133619 0.672521
8 1 0.104552 0.377642 0.195674
9 1 0.35254 0.260741 0.105985
21 3 0.407927 0.382777 0.211639
27 3 0.201331 0.387281 0.351121
18 3 0.408049 0.280269 0.419575
6 1 0.355157 0.257945 0.599892
13 2 0.355092 0.383769 0.351583
20 3 0.410182 0.487474 0.418981
10 1 0.160691 0.262684 0.925333
4 1 0.158258 0.383142 0.685547
29 3 0.0688542 0.384916 0.849048
19 3 0.363059 0.281359 0.918508
26 3 0.362303 0.384193 0.711188
14 2 0.413561 0.38461 0.850189
24 3 0.360979 0.487459 0.918557
54 3 0.152155 0.52979 0.108472
48 2 0.10005 0.633299 0.177971
60 3 0.14981 0.633132 0.316597
63 3 0.15221 0.736473 0.108209
39 1 0.353614 0.506338 0.107481
64 3 0.446207 0.63323 0.173632
34 1 0.105842 0.504361 0.428707
57 3 0.158648 0.530616 0.603417
62 3 0.158722 0.736285 0.60311
44 1 0.358925 0.508677 0.599565
35 1 0.354216 0.633696 0.344792
43 1 0.158298 0.508775 0.927558
47 2 0.106415 0.633608 0.673025
49 3 0.156649 0.633629 0.811189
37 1 0.360521 0.633812 0.839151
55 3 0.450853 0.633457 0.671797
40 1 0.103329 0.890902 0.19753
41 1 0.353428 0.760597 0.107647
53 3 0.408943 0.883835 0.210842
33 1 0.104949 0.763568 0.428658
59 3 0.202846 0.8772 0.349383
50 3 0.411153 0.778528 0.418636
38 1 0.359149 0.758573 0.599162
45 2 0.356098 0.882225 0.35093
52 3 0.409109 0.985671 0.418968
42 1 0.158466 0.758763 0.927646
36 1 0.158049 0.884029 0.68498
61 3 0.0689725 0.88246 0.849508
51 3 0.36115 0.779841 0.918747
58 3 0.363028 0.882517 0.711015
46 2 0.413641 0.882615 0.850045
56 3 0.362844 0.985976 0.918124
86 3 0.656352 0.030413 0.107043
80 2 0.600858 0.133578 0.174484
92 3 0.647399 0.133609 0.314044
95 3 0.656101 0.237006 0.10728
71 1 0.857868 0.00749839 0.106006
96 3 0.948442 0.133551 0.175236
66 1 0.607801 0.00745157 0.42896
89 3 0.657263 0.0306267 0.606152
94 3 0.657049 0.236591 0.605871
76 1 0.861805 0.0090756 0.601468
67 1 0.847801 0.131343 0.339783
75 1 0.658458 0.00730452 0.926969
79 2 0.604516 0.133475 0.675446
81 3 0.655008 0.133829 0.813695
69 1 0.859475 0.133608 0.84409
87 3 0.949321 0.133802 0.679298
72 1 0.606462 0.3829 0.189593
73 1 0.857911 0.259275 0.105841
85 3 0.904055 0.380736 0.214448
65 1 0.605849 0.25788 0.429402
91 3 0.697268 0.382767 0.354005
82 3 0.89943 0.272621 0.420389
70 1 0.858345 0.257574 0.603691
77 2 0.853359 0.37873 0.354276
84 3 0.906652 0.482051 0.422259
74 1 0.658173 0.26007 0.927143
68 1 0.659196 0.383699 0.688454
93 3 0.569535 0.385403 0.850558
83 3 0.861128 0.281632 0.919449
90 3 0.860399 0.38423 0.712326
78 2 0.913128 0.384412 0.850838
88 3 0.862184 0.487651 0.919386
118 3 0.654421 0.529448 0.107591
112 2 0.602059 0.63298 0.17661
124 3 0.654077 0.632596 0.314585
127 3 0.654813 0.736088 0.1072
103 1 0.856133 0.505507 0.108047
1 3 0.943918 0.633224 0.175122
98 1 0.607269 0.508781 0.427555
121 3 0.658606 0.530713 0.603251
126 3 0.658632 0.736397 0.603433
108 1 0.858613 0.508183 0.601315
99 1 0.857329 0.633516 0.346183
107 1 0.66007 0.509 0.927152
111 2 0.606638 0.633563 0.673561
113 3 0.658311 0.633478 0.81115
101 1 0.86272 0.633794 0.839508
119 3 0.950461 0.633521 0.670535
104 1 0.60588 0.883358 0.18805
105 1 0.856161 0.761169 0.10795
117 3 0.902909 0.885555 0.21399
97 1 0.60674 0.75682 0.42743
123 3 0.693703 0.880164 0.350848
114 3 0.904952 0.783478 0.421216
102 1 0.858633 0.759266 0.601043
109 2 0.849874 0.886646 0.353421
116 3 0.889431 0.992528 0.420424
106 1 0.660128 0.758183 0.927059
100 1 0.659403 0.883837 0.688481
125 3 0.569685 0.881983 0.850992
115 3 0.862093 0.779714 0.919434
122 3 0.860617 0.883033 0.712439
110 2 0.913252 0.882955 0.850889
120 3 0.861269 0.985814 0.91948
