ITEM: TIMESTEP
2626
ITEM: NUMBER OF ATOMS
127
ITEM: BOX BOUNDS pp pp pp
0.0000000000000000e+00 1.0002500000000000e+01
0.0000000000000000e+00 1.2353714000000000e+01
0.0000000000000000e+00 1.0615024000000000e+01
ITEM: ATOMS id type xs ys zs
22 3 0.152952 0.0301182 0.102348
16 2 0.103949 0.134336 0.172583
28 3 0.164657 0.137193 0.30492
31 3 0.150923 0.238431 0.100256
7 1 0.353502 0.00562969 0.105685
32 3 0.445618 0.1331 0.168853
2 1 0.0944386 0.217851 0.439602
25 3 0.160541 0.0294777 0.618109
30 3 0.157738 0.234821 0.610203
12 1 0.353484 0.00855386 0.598592
3 1 0.355946 0.129895 0.343156
11 1 0.15984 0.00688574 0.925004
15 2 0.106193 0.131957 0.682258
17 3 0.154272 0.136496 0.821146
5 1 0.359966 0.133383 0.841287
23 3 0.449289 0.133272 0.672717
8 1 0.105043 0.378843 0.193693
9 1 0.352229 0.259769 0.106066
21 3 0.405196 0.382291 0.212419
27 3 0.198913 0.383129 0.354175
18 3 0.40767 0.279222 0.420166
6 1 0.356106 0.25726 0.601105
13 2 0.353686 0.382343 0.352539
20 3 0.407695 0.486549 0.41917
10 1 0.160157 0.262453 0.925336
4 1 0.15911 0.38282 0.687006
29 3 0.0687801 0.385171 0.849464
19 3 0.363055 0.281234 0.918718
26 3 0.362627 0.384043 0.711358
14 2 0.413756 0.384417 0.850431
24 3 0.361165 0.487352 0.918636
54 3 0.152281 0.528979 0.108857
48 2 0.10012 0.632765 0.177982
60 3 0.150009 0.632339 0.316588
63 3 0.152548 0.735678 0.108154
39 1 0.353722 0.506062 0.107191
64 3 0.445945 0.632616 0.173634
34 1 0.105964 0.505301 0.428931
57 3 0.158481 0.530215 0.603763
62 3 0.158844 0.735885 0.60308
44 1 0.358577 0.508576 0.600106
35 1 0.354144 0.63363 0.344646
43 1 0.158445 0.508772 0.927648
47 2 0.106429 0.633407 0.673248
49 3 0.156802 0.633508 0.811354
37 1 0.360748 0.633874 0.839178
55 3 0.45079 0.633171 0.671671
40 1 0.102882 0.891195 0.197908
41 1 0.353482 0.760218 0.107583
53 3 0.409136 0.883187 0.210547
33 1 0.104559 0.763491 0.428805
59 3 0.20318 0.876278 0.348882
50 3 0.411185 0.777633 0.418394
38 1 0.359315 0.758365 0.599022
45 2 0.356431 0.881417 0.350666
52 3 0.409457 0.984763 0.41882
42 1 0.158814 0.758777 0.927851
36 1 0.158786 0.883665 0.686023
61 3 0.0691061 0.882184 0.850363
51 3 0.361495 0.779709 0.919026
58 3 0.364076 0.881787 0.711017
46 2 0.413908 0.882486 0.850193
56 3 0.362457 0.985893 0.917867
86 3 0.656 0.030358 0.107011
80 2 0.601003 0.133382 0.175147
92 3 0.648952 0.133438 0.314229
95 3 0.655312 0.237033 0.107536
71 1 0.857339 0.00726015 0.106179
96 3 0.947628 0.133506 0.174463
66 1 0.608847 0.00669163 0.428628
89 3 0.657698 0.0303996 0.606086
94 3 0.65721 0.236346 0.605553
76 1 0.863558 0.00887448 0.600666
67 1 0.852145 0.129974 0.341835
75 1 0.658923 0.00756442 0.92693
79 2 0.604969 0.133148 0.675408
81 3 0.655791 0.133821 0.813505
69 1 0.861055 0.133456 0.843037
87 3 0.94986 0.13363 0.677409
72 1 0.605672 0.382181 0.190042
73 1 0.857264 0.259073 0.105769
85 3 0.903936 0.38114 0.214131
65 1 0.605407 0.256599 0.429462
91 3 0.697649 0.381858 0.354757
82 3 0.90284 0.274666 0.420516
70 1 0.857821 0.256664 0.604077
77 2 0.853554 0.379805 0.353942
84 3 0.906441 0.483179 0.421795
74 1 0.658273 0.259661 0.927242
68 1 0.659278 0.383425 0.688549
93 3 0.569688 0.385154 0.850721
83 3 0.861071 0.281632 0.919398
90 3 0.860682 0.384041 0.71214
78 2 0.913047 0.384403 0.850815
88 3 0.861875 0.487647 0.919213
118 3 0.653838 0.528368 0.107815
112 2 0.601787 0.632133 0.176638
124 3 0.653571 0.631469 0.314669
127 3 0.65491 0.734984 0.10707
103 1 0.855721 0.505458 0.107564
1 3 0.944067 0.632719 0.174934
98 1 0.606462 0.508085 0.427854
121 3 0.658432 0.530461 0.603185
126 3 0.658667 0.736171 0.603557
108 1 0.858495 0.50829 0.601448
99 1 0.856901 0.6334 0.34591
107 1 0.659942 0.508787 0.927203
111 2 0.606568 0.633351 0.673583
113 3 0.658128 0.633203 0.81119
101 1 0.862564 0.633838 0.839507
119 3 0.950497 0.633351 0.670753
104 1 0.605548 0.882812 0.187201
105 1 0.856096 0.760599 0.107632
117 3 0.902407 0.884671 0.213579
97 1 0.606399 0.75588 0.427477
123 3 0.692494 0.8782 0.349597
114 3 0.904157 0.781833 0.420463
102 1 0.858669 0.759163 0.600985
109 2 0.848604 0.884968 0.352818
116 3 0.887027 0.990364 0.42052
106 1 0.660081 0.758003 0.927085
100 1 0.659612 0.883907 0.6887
125 3 0.569973 0.882113 0.851664
115 3 0.861827 0.779608 0.919479
122 3 0.861086 0.882912 0.712538
110 2 0.913394 0.882833 0.851081
120 3 0.861483 0.985781 0.919566
