ITEM: TIMESTEP
2626
ITEM: NUMBER OF ATOMS
127
ITEM: BOX BOUNDS pp pp pp
0.0000000000000000e+00 1.0002500000000000e+01
0.0000000000000000e+00 1.2353714000000000e+01
0.0000000000000000e+00 1.0615024000000000e+01
ITEM: ATOMS id type xs ys zs
22 3 0.151588 0.0293576 0.0998872
16 2 0.105116 0.133715 0.171337
28 3 0.170583 0.133715 0.301571
31 3 0.151588 0.238073 0.0998872
7 1 0.352693 0.00615159 0.1059
32 3 0.445789 0.133715 0.166482
2 1 0.0982116 0.133715 0.457979
25 3 0.156053 0.0331719 0.611485
30 3 0.156053 0.234259 0.611485
12 1 0.354383 0.00913811 0.59913
3 1 0.361119 0.133715 0.340415
11 1 0.160925 0.00488956 0.925324
15 2 0.104909 0.133715 0.685798
17 3 0.155921 0.133715 0.822728
5 1 0.362154 0.133715 0.842537
23 3 0.448488 0.133715 0.672482
8 1 0.103728 0.376896 0.196998
9 1 0.352693 0.261279 0.1059
21 3 0.408619 0.383114 0.211203
27 3 0.202291 0.389091 0.350046
18 3 0.408532 0.280939 0.419247
6 1 0.354383 0.258293 0.59913
13 2 0.355649 0.38451 0.351212
20 3 0.41086 0.488145 0.418861
10 1 0.160925 0.262541 0.925324
4 1 0.157602 0.383122 0.68447
29 3 0.0689259 0.384676 0.848876
19 3 0.363013 0.281407 0.918406
26 3 0.36208 0.384303 0.711095
14 2 0.413406 0.384699 0.850039
24 3 0.360885 0.487507 0.918538
54 3 0.152099 0.530368 0.108251
48 2 0.0999955 0.633715 0.177908
60 3 0.149734 0.633715 0.31654
63 3 0.152099 0.737063 0.108251
39 1 0.353409 0.506552 0.107605
64 3 0.44616 0.633715 0.173558
34 1 0.105217 0.503978 0.42855
57 3 0.158602 0.530874 0.603171
62 3 0.158602 0.736557 0.603171
44 1 0.358975 0.508736 0.599342
35 1 0.354144 0.633715 0.344807
43 1 0.158208 0.50869 0.927499
47 2 0.106338 0.633715 0.672926
49 3 0.156577 0.633715 0.811093
37 1 0.360395 0.633715 0.839175
55 3 0.450798 0.633715 0.671885
40 1 0.103728 0.890535 0.196998
41 1 0.35341 0.760878 0.107605
53 3 0.408619 0.884316 0.211203
33 1 0.105217 0.763453 0.42855
59 3 0.202291 0.878339 0.350046
50 3 0.41086 0.779286 0.418861
38 1 0.358975 0.758695 0.599342
45 2 0.355649 0.882921 0.351212
52 3 0.408532 0.986491 0.419247
42 1 0.158208 0.758741 0.927499
36 1 0.157602 0.884308 0.68447
61 3 0.0689259 0.882754 0.848876
51 3 0.360885 0.779924 0.918538
58 3 0.36208 0.883127 0.711095
46 2 0.413406 0.882732 0.850039
56 3 0.363013 0.986023 0.918406
86 3 0.656512 0.0304134 0.107063
80 2 0.601009 0.133715 0.174215
92 3 0.646931 0.133715 0.313936
95 3 0.656512 0.237017 0.107063
71 1 0.858093 0.00785693 0.10616
96 3 0.948965 0.133715 0.175848
66 1 0.607143 0.00830155 0.429142
89 3 0.656887 0.030722 0.606186
94 3 0.656887 0.236709 0.606186
76 1 0.860004 0.0093751 0.60247
67 1 0.847887 0.133715 0.340065
75 1 0.658171 0.00714612 0.927067
79 2 0.604227 0.133715 0.6755
81 3 0.654444 0.133715 0.813867
69 1 0.858341 0.133715 0.844911
87 3 0.948694 0.133715 0.681268
72 1 0.606188 0.383578 0.188724
73 1 0.858093 0.259574 0.10616
85 3 0.903387 0.381256 0.214345
65 1 0.607143 0.259129 0.429142
91 3 0.69499 0.385476 0.352081
82 3 0.892723 0.273598 0.420622
70 1 0.860004 0.258056 0.60247
77 2 0.851177 0.37965 0.353939
84 3 0.905622 0.482918 0.421764
74 1 0.658171 0.260285 0.927067
68 1 0.659315 0.383675 0.688378
93 3 0.569407 0.385507 0.850484
83 3 0.86113 0.281653 0.919538
90 3 0.860342 0.384316 0.712387
78 2 0.913171 0.384386 0.850799
88 3 0.862365 0.48768 0.919385
118 3 0.65456 0.53041 0.107227
112 2 0.60202 0.633715 0.17649
124 3 0.65407 0.633715 0.314439
127 3 0.65456 0.737021 0.107227
103 1 0.856133 0.505816 0.108104
1 3 0.943849 0.633715 0.175084
98 1 0.606993 0.509822 0.427411
121 3 0.658529 0.530872 0.603348
126 3 0.658529 0.736559 0.603348
108 1 0.858556 0.508157 0.601094
99 1 0.857292 0.633715 0.346176
107 1 0.66014 0.509112 0.927015
111 2 0.606596 0.633715 0.673573
113 3 0.658344 0.633715 0.811142
101 1 0.862764 0.633715 0.839495
119 3 0.950389 0.633715 0.670494
104 1 0.606188 0.883852 0.188724
105 1 0.856133 0.761615 0.108104
117 3 0.903387 0.886175 0.214345
97 1 0.606993 0.757608 0.427411
123 3 0.69499 0.881955 0.352081
114 3 0.905622 0.784512 0.421764
102 1 0.858555 0.759274 0.601094
109 2 0.851177 0.88778 0.353939
116 3 0.892723 0.993832 0.420622
106 1 0.66014 0.758319 0.927015
100 1 0.659315 0.883756 0.688378
125 3 0.569407 0.881924 0.850484
115 3 0.862365 0.779751 0.919386
122 3 0.860341 0.883115 0.712387
110 2 0.913171 0.883045 0.850799
120 3 0.86113 0.985777 0.919537
