ITEM: TIMESTEP
2626
ITEM: NUMBER OF ATOMS
127
ITEM: BOX BOUNDS pp pp pp
0.0000000000000000e+00 1.0002500000000000e+01
0.0000000000000000e+00 1.2353714000000000e+01
0.0000000000000000e+00 1.0615024000000000e+01
ITEM: ATOMS id type xs ys zs
22 3 0.150761 0.0288235 0.100383
16 2 0.103683 0.132798 0.173022
28 3 0.163417 0.129175 0.305735
31 3 0.153272 0.237029 0.10307
7 1 0.352104 0.00801383 0.106099
32 3 0.445607 0.134454 0.16944
2 1 0.0979908 0.0387263 0.436343
25 3 0.157853 0.0324393 0.609472
30 3 0.161045 0.238221 0.618501
12 1 0.356306 0.0104112 0.601496
3 1 0.354904 0.138147 0.343656
11 1 0.159978 0.00504188 0.925333
15 2 0.106314 0.135358 0.681426
17 3 0.154198 0.130476 0.820551
5 1 0.35957 0.134095 0.841004
23 3 0.44944 0.134288 0.672779
8 1 0.102744 0.376121 0.198017
9 1 0.353665 0.261853 0.105718
21 3 0.409183 0.384493 0.210459
27 3 0.203248 0.391414 0.348744
18 3 0.409533 0.282972 0.41878
6 1 0.353559 0.259005 0.598605
13 2 0.356509 0.386289 0.35058
20 3 0.411159 0.490101 0.418317
10 1 0.159568 0.260067 0.925091
4 1 0.158999 0.383767 0.686311
29 3 0.0691751 0.385264 0.850626
19 3 0.362286 0.281558 0.917809
26 3 0.364333 0.385824 0.711025
14 2 0.413963 0.384966 0.85025
24 3 0.361596 0.487759 0.919098
54 3 0.152669 0.532012 0.108115
48 2 0.100146 0.634839 0.177965
60 3 0.150082 0.635334 0.316565
63 3 0.152341 0.738712 0.108978
39 1 0.353504 0.507366 0.107539
64 3 0.445835 0.635034 0.173619
34 1 0.104431 0.504004 0.428837
57 3 0.158864 0.531654 0.603081
62 3 0.158429 0.737328 0.603873
44 1 0.359354 0.509128 0.598989
35 1 0.354106 0.633843 0.344577
43 1 0.158929 0.508636 0.927903
47 2 0.106428 0.634081 0.673329
49 3 0.156857 0.633949 0.811412
37 1 0.36083 0.633543 0.839195
55 3 0.450759 0.634336 0.671637
40 1 0.105123 0.888191 0.193048
41 1 0.353739 0.761477 0.10708
53 3 0.404141 0.885308 0.212682
33 1 0.105907 0.761721 0.429021
59 3 0.198108 0.885603 0.355288
50 3 0.406813 0.781153 0.419252
38 1 0.358453 0.758886 0.600325
45 2 0.353232 0.885532 0.352889
52 3 0.407554 0.988522 0.420379
42 1 0.158498 0.75866 0.92768
36 1 0.159339 0.884739 0.687462
61 3 0.0687504 0.882172 0.849619
51 3 0.361234 0.780119 0.91867
58 3 0.362711 0.88345 0.711429
46 2 0.413818 0.883087 0.850518
56 3 0.363058 0.986245 0.918812
86 3 0.655014 0.0304206 0.107618
80 2 0.601046 0.134138 0.175399
92 3 0.649497 0.134086 0.314297
95 3 0.655831 0.237123 0.107003
71 1 0.857007 0.00840501 0.105802
96 3 0.947355 0.133941 0.174218
66 1 0.605417 0.0112348 0.429459
89 3 0.65728 0.031177 0.605465
94 3 0.657826 0.237125 0.606066
76 1 0.857971 0.0109772 0.603959
67 1 0.853982 0.137601 0.342653
75 1 0.658311 0.00791616 0.927282
79 2 0.605128 0.134384 0.675391
81 3 0.656035 0.133634 0.813447
69 1 0.861532 0.134006 0.842691
87 3 0.95 0.133863 0.67688
72 1 0.605447 0.38482 0.186917
73 1 0.857122 0.260218 0.10628
85 3 0.902261 0.383043 0.213449
65 1 0.609202 0.260965 0.428502
91 3 0.692175 0.38983 0.349234
82 3 0.886457 0.27774 0.42057
70 1 0.863997 0.25864 0.600505
77 2 0.848257 0.382995 0.352627
84 3 0.903924 0.486122 0.420223
74 1 0.659069 0.259773 0.926927
68 1 0.65969 0.383507 0.68878
93 3 0.570032 0.385257 0.851863
83 3 0.861552 0.281654 0.919602
90 3 0.861261 0.384561 0.71257
78 2 0.913457 0.384621 0.851149
88 3 0.861782 0.487849 0.919489
118 3 0.654937 0.532837 0.107006
112 2 0.601674 0.635599 0.176629
124 3 0.653366 0.636325 0.314681
127 3 0.6536 0.739441 0.107868
103 1 0.856077 0.507036 0.107512
1 3 0.944124 0.634874 0.174842
98 1 0.606284 0.511886 0.427485
121 3 0.658672 0.531331 0.603601
126 3 0.65835 0.737053 0.60318
108 1 0.858675 0.508318 0.600965
99 1 0.856711 0.634114 0.345777
107 1 0.660057 0.509483 0.927084
111 2 0.606537 0.634148 0.673597
113 3 0.658059 0.634307 0.811212
101 1 0.862505 0.633589 0.839506
119 3 0.950505 0.634126 0.670839
104 1 0.605365 0.885503 0.190161
105 1 0.855543 0.761994 0.107405
117 3 0.903837 0.886087 0.214
97 1 0.606171 0.759554 0.427966
123 3 0.697577 0.885669 0.354855
114 3 0.906261 0.783754 0.421559
102 1 0.858442 0.759116 0.601463
109 2 0.853459 0.887229 0.353829
116 3 0.903526 0.991963 0.420587
106 1 0.6599 0.758727 0.927212
100 1 0.659343 0.884138 0.688574
125 3 0.569735 0.882373 0.850775
115 3 0.861765 0.779774 0.919159
122 3 0.860772 0.883438 0.712095
110 2 0.913009 0.883025 0.850812
120 3 0.861045 0.985795 0.919396
