ITEM: TIMESTEP
2626
ITEM: NUMBER OF ATOMS
127
ITEM: BOX BOUNDS pp pp pp
0.0000000000000000e+00 1.0002500000000000e+01
0.0000000000000000e+00 1.2353714000000000e+01
0.0000000000000000e+00 1.0615024000000000e+01
ITEM: ATOMS id type xs ys zs
22 3 0.15481 0.0337295 0.106249
16 2 0.102642 0.13804 0.174636
28 3 0.159003 0.144552 0.308537
31 3 0.149772 0.241463 0.100836
7 1 0.354586 0.00665745 0.106601
32 3 0.445515 0.133577 0.173267
3 1 0.350103 0.128609 0.34657
25 3 0.163776 0.0303752 0.617913
30 3 0.158651 0.236959 0.60677
12 1 0.355513 0.00846367 0.598848
11 1 0.15832 0.0104682 0.926357
15 2 0.107446 0.133773 0.678301
17 3 0.154087 0.139384 0.818183
5 1 0.358446 0.133927 0.839745
23 3 0.450711 0.133548 0.67292
8 1 0.104575 0.382745 0.191052
9 1 0.351815 0.259307 0.107061
21 3 0.401914 0.383075 0.21329
27 3 0.196691 0.384124 0.356479
18 3 0.405836 0.280082 0.421067
6 1 0.357284 0.257285 0.602543
13 2 0.352284 0.383251 0.353614
20 3 0.405725 0.487488 0.419799
2 1 0.106635 0.252593 0.430816
10 1 0.159449 0.26335 0.925341
4 1 0.159967 0.383231 0.68879
29 3 0.0686091 0.386575 0.850173
19 3 0.363169 0.281396 0.919355
26 3 0.362748 0.384267 0.711913
14 2 0.414097 0.384453 0.850933
24 3 0.361784 0.487614 0.918887
54 3 0.152463 0.529688 0.108636
48 2 0.0999082 0.633661 0.177266
60 3 0.149749 0.633226 0.315891
63 3 0.152711 0.736329 0.107547
39 1 0.353341 0.506407 0.106551
64 3 0.444762 0.632658 0.173082
34 1 0.104497 0.509587 0.429218
57 3 0.157948 0.530782 0.604363
62 3 0.158575 0.736524 0.603284
44 1 0.357864 0.509209 0.601275
35 1 0.3535 0.63434 0.344058
43 1 0.158909 0.509687 0.927594
47 2 0.10635 0.634191 0.673905
49 3 0.157442 0.634412 0.811751
37 1 0.361494 0.634636 0.839749
55 3 0.450429 0.633657 0.671806
40 1 0.102308 0.893295 0.198394
41 1 0.353175 0.760498 0.107338
53 3 0.409113 0.882802 0.21034
33 1 0.103897 0.764185 0.428798
59 3 0.203208 0.87665 0.348531
50 3 0.410532 0.777156 0.418251
38 1 0.359204 0.758774 0.599166
45 2 0.356542 0.88115 0.350467
52 3 0.409997 0.984276 0.418764
42 1 0.159684 0.759977 0.927846
36 1 0.160091 0.885219 0.687191
61 3 0.0697361 0.883506 0.851613
51 3 0.362336 0.780468 0.919566
58 3 0.365222 0.881981 0.711391
46 2 0.41417 0.883469 0.850828
56 3 0.361284 0.986766 0.917954
86 3 0.65465 0.0310226 0.107337
80 2 0.601166 0.133942 0.176971
92 3 0.652414 0.134089 0.314864
95 3 0.653512 0.237734 0.107978
71 1 0.855897 0.00859231 0.107341
96 3 0.946363 0.135181 0.173706
66 1 0.611009 0.0067254 0.427726
89 3 0.6586 0.0304097 0.60578
94 3 0.658341 0.236433 0.604575
76 1 0.865108 0.00888281 0.599991
67 1 0.862669 0.131344 0.346389
75 1 0.660129 0.00914892 0.92718
79 2 0.606461 0.13336 0.674975
81 3 0.657957 0.134389 0.812775
69 1 0.863839 0.134387 0.840802
87 3 0.951152 0.134229 0.673693
72 1 0.603791 0.382174 0.190434
73 1 0.855279 0.260522 0.106341
85 3 0.902732 0.384026 0.213243
65 1 0.60549 0.256219 0.429047
91 3 0.696919 0.382925 0.354985
82 3 0.906126 0.280444 0.420857
70 1 0.859595 0.257515 0.602499
77 2 0.852765 0.383461 0.353246
84 3 0.904437 0.487795 0.420158
74 1 0.658636 0.259385 0.927432
68 1 0.66001 0.383199 0.688574
93 3 0.569974 0.384897 0.850758
83 3 0.861094 0.282414 0.919212
90 3 0.861386 0.384639 0.711696
78 2 0.912844 0.38528 0.850676
88 3 0.860851 0.488451 0.918668
118 3 0.652019 0.527622 0.10762
112 2 0.600541 0.631689 0.176205
124 3 0.651913 0.630945 0.314306
127 3 0.654553 0.734127 0.106474
103 1 0.85403 0.50688 0.106251
1 3 0.943968 0.633394 0.173583
98 1 0.605118 0.508534 0.428635
121 3 0.657927 0.530801 0.603746
126 3 0.658563 0.736587 0.603941
108 1 0.858043 0.509621 0.601466
99 1 0.855012 0.634396 0.344091
107 1 0.659145 0.508935 0.926981
111 2 0.60619 0.633826 0.673943
113 3 0.6574 0.633845 0.811652
101 1 0.861882 0.634803 0.83986
119 3 0.950437 0.634154 0.671833
104 1 0.604853 0.882538 0.185971
105 1 0.855641 0.760904 0.10674
117 3 0.901825 0.884536 0.212851
97 1 0.60554 0.755217 0.427534
123 3 0.691452 0.876638 0.348104
114 3 0.903113 0.780356 0.419219
102 1 0.858778 0.75968 0.600958
109 2 0.847443 0.883623 0.351909
116 3 0.885687 0.988348 0.420697
106 1 0.659662 0.758784 0.927078
100 1 0.660167 0.884654 0.689468
125 3 0.570255 0.883799 0.852889
115 3 0.861712 0.780722 0.919594
122 3 0.862182 0.883737 0.712838
110 2 0.913975 0.883911 0.851573
120 3 0.862275 0.987038 0.919916
