ITEM: TIMESTEP
2626
ITEM: NUMBER OF ATOMS
127
ITEM: BOX BOUNDS pp pp pp
0.0000000000000000e+00 1.0002500000000000e+01
0.0000000000000000e+00 1.2353714000000000e+01
0.0000000000000000e+00 1.0615024000000000e+01
ITEM: ATOMS id type xs ys zs
22 3 0.15132 0.0292711 0.0997638
16 2 0.104836 0.133586 0.171431
28 3 0.169125 0.132705 0.302214
31 3 0.151997 0.237907 0.100415
7 1 0.352569 0.00654583 0.105967
32 3 0.445647 0.133924 0.166984
2 1 0.0906571 0.101329 0.453175
25 3 0.156426 0.0327651 0.611593
30 3 0.157691 0.235284 0.613934
12 1 0.354973 0.00934222 0.599739
3 1 0.359519 0.135128 0.341338
11 1 0.160786 0.00473605 0.925315
15 2 0.105486 0.134611 0.685081
17 3 0.155239 0.132704 0.82268
5 1 0.361586 0.133829 0.842251
23 3 0.448724 0.13377 0.672499
8 1 0.103415 0.376593 0.197445
9 1 0.352924 0.261548 0.105788
21 3 0.408887 0.383497 0.210905
27 3 0.202752 0.390019 0.349513
18 3 0.409023 0.281596 0.419007
6 1 0.353672 0.258357 0.598628
13 2 0.356016 0.385066 0.350981
20 3 0.411115 0.488746 0.418682
10 1 0.16071 0.262035 0.925155
4 1 0.157848 0.38319 0.684669
29 3 0.0689656 0.384863 0.849279
19 3 0.362905 0.281434 0.918207
26 3 0.362706 0.38469 0.711014
14 2 0.413552 0.384769 0.85001
24 3 0.361063 0.487556 0.91866
54 3 0.152165 0.530826 0.108208
48 2 0.100036 0.634043 0.177959
60 3 0.149783 0.634166 0.316588
63 3 0.152138 0.737511 0.108418
39 1 0.353415 0.506779 0.107633
64 3 0.446216 0.634095 0.173619
34 1 0.105012 0.503891 0.428612
57 3 0.158673 0.531043 0.603124
62 3 0.158666 0.736714 0.603344
44 1 0.359094 0.508803 0.599207
35 1 0.354206 0.633749 0.344806
43 1 0.158389 0.50866 0.927585
47 2 0.106397 0.63377 0.672989
49 3 0.156622 0.633773 0.811159
37 1 0.360479 0.633636 0.839153
55 3 0.450845 0.633896 0.671825
40 1 0.104361 0.890017 0.196054
41 1 0.35357 0.761059 0.107536
53 3 0.408202 0.8846 0.211534
33 1 0.105716 0.763228 0.428675
59 3 0.201638 0.879625 0.350775
50 3 0.410446 0.779819 0.418962
38 1 0.358962 0.758724 0.599492
45 2 0.355263 0.883483 0.351479
52 3 0.408129 0.987025 0.419508
42 1 0.158265 0.758662 0.927553
36 1 0.15808 0.88418 0.685299
61 3 0.0688654 0.882569 0.848998
51 3 0.360951 0.779949 0.918563
58 3 0.362245 0.883184 0.711174
46 2 0.413526 0.882781 0.85016
56 3 0.363052 0.986049 0.918475
86 3 0.65623 0.0304392 0.107224
80 2 0.600872 0.133832 0.174379
92 3 0.647172 0.133813 0.314006
95 3 0.65641 0.237029 0.107038
71 1 0.857996 0.00810067 0.105919
96 3 0.948616 0.133866 0.175418
66 1 0.606111 0.00927091 0.429361
89 3 0.656992 0.030794 0.605964
94 3 0.657165 0.236766 0.606171
76 1 0.858684 0.00967197 0.603419
67 1 0.847528 0.135564 0.339693
75 1 0.658164 0.00728753 0.927133
79 2 0.604423 0.133888 0.675461
81 3 0.654826 0.133619 0.813749
69 1 0.8591 0.133783 0.844347
87 3 0.949133 0.133572 0.679904
72 1 0.605949 0.383977 0.188201
73 1 0.857945 0.25986 0.106026
85 3 0.903017 0.381717 0.214077
65 1 0.607655 0.259815 0.42901
91 3 0.693972 0.386882 0.351107
82 3 0.890036 0.274532 0.420448
70 1 0.861393 0.258275 0.601697
77 2 0.850147 0.38049 0.353541
84 3 0.905111 0.483667 0.421356
74 1 0.658363 0.260181 0.926979
68 1 0.659383 0.383605 0.68843
93 3 0.569589 0.385468 0.850809
83 3 0.861226 0.281619 0.919478
90 3 0.860536 0.384367 0.712407
78 2 0.913234 0.384439 0.850841
88 3 0.862187 0.487696 0.919408
118 3 0.654769 0.531142 0.107198
112 2 0.60207 0.634295 0.176585
124 3 0.65411 0.634597 0.31455
127 3 0.654473 0.737778 0.107518
103 1 0.856167 0.506163 0.107998
1 3 0.943894 0.634107 0.175132
98 1 0.606802 0.51045 0.427416
121 3 0.658613 0.530988 0.603412
126 3 0.658592 0.736672 0.603272
108 1 0.858615 0.508157 0.601047
99 1 0.857351 0.633918 0.346205
107 1 0.66013 0.509208 0.927038
111 2 0.606634 0.633823 0.673562
113 3 0.658331 0.633894 0.811146
101 1 0.86274 0.633656 0.839506
119 3 0.950443 0.633863 0.670511
104 1 0.606478 0.884388 0.189442
105 1 0.856157 0.761899 0.108117
117 3 0.903951 0.886658 0.214469
97 1 0.607286 0.75846 0.427509
123 3 0.696828 0.884144 0.353623
114 3 0.906495 0.785357 0.422222
102 1 0.858609 0.759268 0.601262
109 2 0.852965 0.888685 0.35427
116 3 0.897935 0.994854 0.420434
106 1 0.6601 0.758398 0.927131
100 1 0.659213 0.883713 0.688439
125 3 0.569505 0.881987 0.850543
115 3 0.86224 0.779767 0.919416
122 3 0.860351 0.883156 0.71237
110 2 0.913134 0.883016 0.850845
120 3 0.861129 0.98579 0.919482
