ITEM: TIMESTEP
2626
ITEM: NUMBER OF ATOMS
127
ITEM: BOX BOUNDS pp pp pp
0.0000000000000000e+00 1.0002500000000000e+01
0.0000000000000000e+00 1.2353714000000000e+01
0.0000000000000000e+00 1.0615024000000000e+01
ITEM: ATOMS id type xs ys zs
22 3 0.151126 0.02918 0.100025
16 2 0.104334 0.133375 0.172042
28 3 0.166415 0.131361 0.303815
31 3 0.152557 0.237623 0.101486
7 1 0.352423 0.00711717 0.106021
32 3 0.44558 0.134153 0.167934
2 1 0.0888294 0.0690413 0.445313
25 3 0.157258 0.0326969 0.611076
30 3 0.159595 0.23715 0.617046
12 1 0.355596 0.00976881 0.600444
3 1 0.357322 0.136498 0.342456
11 1 0.160459 0.00481783 0.925341
15 2 0.105983 0.13535 0.683559
17 3 0.154489 0.131606 0.822008
5 1 0.360647 0.133947 0.841732
23 3 0.449022 0.133937 0.672587
8 1 0.103089 0.376369 0.197759
9 1 0.353251 0.261737 0.105682
21 3 0.409064 0.383928 0.210666
27 3 0.20306 0.390742 0.349103
18 3 0.409312 0.282222 0.418856
6 1 0.3534 0.258627 0.598525
13 2 0.356304 0.385625 0.350777
20 3 0.411219 0.489358 0.418504
10 1 0.160261 0.261216 0.925024
4 1 0.158385 0.383585 0.685464
29 3 0.0690222 0.385114 0.849919
19 3 0.36269 0.281489 0.917979
26 3 0.363571 0.385271 0.710987
14 2 0.413776 0.384878 0.850084
24 3 0.361307 0.487645 0.918868
54 3 0.152337 0.531344 0.108175
48 2 0.100092 0.634397 0.17799
60 3 0.149909 0.634665 0.316604
63 3 0.152222 0.738029 0.108647
39 1 0.353453 0.507039 0.107617
64 3 0.446158 0.634513 0.173653
34 1 0.104758 0.503868 0.428724
57 3 0.158781 0.53131 0.603083
62 3 0.158631 0.736975 0.603565
44 1 0.35924 0.508942 0.599081
35 1 0.354239 0.633777 0.344742
43 1 0.158624 0.508646 0.927734
47 2 0.106443 0.633896 0.67311
49 3 0.156715 0.633848 0.811255
37 1 0.360619 0.633572 0.839145
55 3 0.450856 0.634107 0.671735
40 1 0.104913 0.889225 0.194697
41 1 0.353723 0.761237 0.107362
53 3 0.406981 0.884884 0.211971
33 1 0.106047 0.762654 0.428803
59 3 0.200386 0.88179 0.352259
50 3 0.409306 0.780395 0.419059
38 1 0.358839 0.758788 0.599767
45 2 0.354575 0.884264 0.351948
52 3 0.407805 0.987637 0.419824
42 1 0.158367 0.758625 0.927605
36 1 0.15871 0.884349 0.686292
61 3 0.0688124 0.882364 0.849242
51 3 0.361059 0.78 0.918593
58 3 0.362489 0.883274 0.711259
46 2 0.413663 0.882883 0.850302
56 3 0.363063 0.986106 0.918589
86 3 0.655769 0.0304339 0.107411
80 2 0.600877 0.13396 0.174757
92 3 0.648007 0.133918 0.314126
95 3 0.656194 0.237054 0.107023
71 1 0.857667 0.00830688 0.105734
96 3 0.948029 0.133932 0.174816
66 1 0.6054 0.0102533 0.429479
89 3 0.6571 0.0309301 0.605712
94 3 0.657465 0.236881 0.606119
76 1 0.857732 0.0103202 0.604152
67 1 0.849307 0.137096 0.340462
75 1 0.658194 0.00753098 0.927199
79 2 0.604693 0.134101 0.675429
81 3 0.65535 0.133572 0.813603
69 1 0.860233 0.133895 0.843593
87 3 0.949599 0.133671 0.678294
72 1 0.605704 0.384376 0.187597
73 1 0.857646 0.260097 0.106012
85 3 0.902626 0.382319 0.213774
65 1 0.60828 0.260425 0.428809
91 3 0.693009 0.388326 0.350159
82 3 0.887949 0.275963 0.420425
70 1 0.862753 0.258429 0.600985
77 2 0.84915 0.381631 0.3531
84 3 0.904536 0.484753 0.42084
74 1 0.658656 0.26001 0.926927
68 1 0.659494 0.383542 0.688561
93 3 0.569835 0.385399 0.851303
83 3 0.861352 0.281622 0.919489
90 3 0.860838 0.384437 0.712463
78 2 0.913313 0.384527 0.850957
88 3 0.861951 0.487757 0.919439
118 3 0.654922 0.531922 0.107141
112 2 0.602006 0.634901 0.176646
124 3 0.653946 0.635452 0.314642
127 3 0.654229 0.738558 0.107748
103 1 0.856156 0.506564 0.107798
1 3 0.94399 0.634493 0.175081
98 1 0.606577 0.51112 0.427448
121 3 0.658676 0.531133 0.603488
126 3 0.658579 0.736823 0.603207
108 1 0.858661 0.508195 0.601011
99 1 0.857222 0.633999 0.34611
107 1 0.660117 0.509333 0.927069
111 2 0.606635 0.633959 0.673565
113 3 0.658257 0.634089 0.811162
101 1 0.86267 0.633601 0.839506
119 3 0.950497 0.634002 0.670601
104 1 0.606293 0.884928 0.189903
105 1 0.856017 0.762015 0.107873
117 3 0.904152 0.886674 0.214374
97 1 0.607089 0.759093 0.427691
123 3 0.697807 0.885482 0.354627
114 3 0.906797 0.785141 0.422207
102 1 0.858593 0.759204 0.601426
109 2 0.85378 0.888421 0.354202
116 3 0.901724 0.994168 0.42043
106 1 0.660026 0.758513 0.927207
100 1 0.65917 0.883797 0.688512
125 3 0.569617 0.882112 0.850648
115 3 0.862048 0.779774 0.919336
122 3 0.8605 0.88328 0.712261
110 2 0.913091 0.883008 0.850848
120 3 0.861101 0.98579 0.919426
