LAMMPS (12 Dec 2018)
Processor partition = 2
units         metal
atom_style    atomic
neighbor      1.0 bin
neigh_modify  every 1 delay 0 check yes

boundary        p p p
atom_modify map array sort 0 0.0
variable	u uloop 8

read_data   initial.lammps
  orthogonal box = (0 0 0) to (10.0025 12.3537 10.615)
  2 by 4 by 3 MPI processor grid
  reading atoms ...
  127 atoms
pair_style  hybrid/overlay nnp3v nnp3v_vf
pair_coeff  * * nnp3v lammps-force.nnp Li P O
Reading potential file lammps-force.nnp with DATE: 20201105
pair_coeff  * * nnp3v_vf lammps_rot.nnp Li P O
Reading potential file lammps_rot.nnp with DATE: 20211226
min_style   quickmin
minimize    1.0e-6 1.0e-4 1000 10000
Neighbor list info ...
  update every 1 steps, delay 0 steps, check yes
  max neighbors/atom: 2000, page size: 100000
  master list distance cutoff = 8
  ghost atom cutoff = 8
  binsize = 4, bins = 3 4 3
  2 neighbor lists, perpetual/occasional/extra = 2 0 0
  (1) pair nnp3v, perpetual
      attributes: full, newton on
      pair build: full/bin/atomonly
      stencil: full/bin/3d
      bin: standard
  (2) pair nnp3v_vf, perpetual, copy from (1)
      attributes: full, newton on
      pair build: copy
      stencil: none
      bin: none
Per MPI rank memory allocation (min/avg/max) = 3.111 | 3.226 | 3.362 Mbytes
Step Temp E_pair E_mol TotEng Press 
       0            0   -796.79482            0   -796.79482    13324.103 
      24   0.66844098   -796.99042            0   -796.97954    13893.519 
Loop time of 14.7161 on 24 procs for 24 steps with 127 atoms

98.1% CPU use with 24 MPI tasks x no OpenMP threads

Minimization stats:
  Stopping criterion = energy tolerance
  Energy initial, next-to-last, final = 
        -796.794816724     -796.990398619     -796.990424995
  Force two-norm initial, final = 1.98977 0.177561
  Force max component initial, final = 0.330078 0.036579
  Final line search alpha, max atom move = 0 0
  Iterations, force evaluations = 24 24

MPI task timing breakdown:
Section |  min time  |  avg time  |  max time  |%varavg| %total
---------------------------------------------------------------
Pair    | 6.1106     | 10.8       | 14.706     |  77.7 | 73.39
Neigh   | 0          | 0          | 0          |   0.0 |  0.00
Comm    | 0.008775   | 3.9143     | 8.6041     | 129.1 | 26.60
Output  | 0          | 0          | 0          |   0.0 |  0.00
Modify  | 0          | 0          | 0          |   0.0 |  0.00
Other   |            | 0.001398   |            |       |  0.01

Nlocal:    5.29167 ave 7 max 3 min
Histogram: 4 0 0 0 0 9 0 7 0 4
Nghost:    759.125 ave 797 max 714 min
Histogram: 7 1 0 0 0 2 6 0 0 8
Neighs:    0 ave 0 max 0 min
Histogram: 24 0 0 0 0 0 0 0 0 0
FullNghs:  1068 ave 1413 max 614 min
Histogram: 4 0 0 0 5 4 0 7 0 4

Total # of neighbors = 25632
Ave neighs/atom = 201.827
Neighbor list builds = 0
Dangerous builds = 0

reset_timestep	0

#timestep   0.001
#velocity   all create 1000 87287

dump   1 all atom 1 dump.neb.$u
dump   1 all atom 1 dump.neb.3
fix    2 all neb 1.0 parallel neigh
dump   2 all atom 1 test.dump

thermo          1
neb 0.00000000001 0.0 10000 5000 1 final final.lammps
Per MPI rank memory allocation (min/avg/max) = 5.112 | 5.226 | 5.362 Mbytes
Step Temp E_pair E_mol TotEng Press 
       0            0   -795.79562            0   -795.79562     15349.67 
       1    1.4492302   -795.79562            0   -795.77202    15368.891 
       2    5.9837968   -795.84031            0   -795.74285    15430.906 
       3    13.967101   -795.92498            0    -795.6975    15549.302 
       4    25.173886   -796.03778            0   -795.62778    15730.233 
       5    38.424756   -796.16114            0   -795.53532    15949.525 
       6    50.973109   -796.27642            0   -795.44623    16116.851 
       7    58.376321   -796.37182            0   -795.42105    16080.469 
       8    57.256197   -796.44424            0   -795.51172    15776.494 
       9    53.458247    -796.4978            0   -795.62714    15429.262 
      10    49.004617   -796.53628            0   -795.73815    15211.285 
      11    44.171889   -796.56513            0   -795.84571    15112.083 
      12    42.597768   -796.58208            0    -795.8883     14968.67 
      13     34.78799   -796.59122            0   -796.02464    15089.082 
      14  0.023591784   -796.59122            0   -796.59084    14628.017 
      15   0.10220908   -796.59182            0   -796.59016    14619.917 
      16   0.23382316   -796.59292            0   -796.58911    14603.801 
      17   0.39868399   -796.59431            0   -796.58781     14580.72 
      18   0.56273317   -796.59571            0   -796.58655    14552.542 
      19   0.67198636   -796.59693            0   -796.58598    14522.247 
      20   0.65702708   -796.59796            0   -796.58726    14494.642 
      21    0.5457024    -796.5991            0   -796.59021    14476.149 
      22   0.53068413   -796.60055            0   -796.59191    14468.723 
      23   0.61793111   -796.60229            0   -796.59223    14467.143 
      24   0.73368306   -796.60421            0   -796.59226    14467.104 
      25   0.85963952   -796.60627            0   -796.59227    14467.279 
      26   0.99379275   -796.60844            0   -796.59225      14467.5 
      27    1.1356912   -796.61071            0   -796.59221    14467.807 
      28    1.2849498   -796.61306            0   -796.59213    14468.236 
      29    1.4411842   -796.61548            0   -796.59201    14468.816 
      30    1.6040037   -796.61796            0   -796.59184    14469.567 
      31    1.7729961   -796.62049            0   -796.59162    14470.504 
      32    1.9477171   -796.62306            0   -796.59134    14471.636 
      33    2.1276709   -796.62566            0   -796.59101    14472.958 
      34    2.3122985   -796.62828            0   -796.59062    14474.476 
      35    2.5009381    -796.6309            0   -796.59017     14476.19 
      36    2.6928705   -796.63354            0   -796.58968    14478.117 
      37    2.8872328   -796.63617            0   -796.58915    14480.238 
      38    3.0830928   -796.63879            0   -796.58857    14482.524 
      39    3.2793381   -796.64138            0   -796.58797    14484.976 
      40    3.4750396   -796.64393            0   -796.58733    14487.606 
      41     3.668453   -796.64644            0   -796.58669    14490.352 
      42    3.8600846    -796.6489            0   -796.58604    14493.354 
      43    4.0422526    -796.6513            0   -796.58547    14496.079 
      44     4.225081   -796.65367            0   -796.58486    14500.309 
      45    4.0323962    -796.6557            0   -796.59003    14494.483 
      46   0.96397731   -796.65679            0   -796.64109    14461.513 
      47 0.00072607104   -796.65679            0   -796.65678    14448.738 
      48 0.0022911189    -796.6568            0   -796.65676    14448.585 
      49 0.0049427858   -796.65683            0   -796.65675    14448.275 
      50 0.0088841431   -796.65688            0   -796.65674    14447.828 
      51  0.014585303   -796.65695            0   -796.65672    14447.285 
      52   0.02284032   -796.65705            0   -796.65668    14446.733 
      53  0.033877943    -796.6572            0   -796.65665     14446.31 
      54  0.045989752   -796.65738            0   -796.65663    14446.126 
      55  0.058290152    -796.6576            0   -796.65665    14446.181 
      56   0.07143091   -796.65785            0   -796.65669    14446.409 
      57   0.08567266   -796.65813            0   -796.65673    14446.736 
      58   0.10102277   -796.65843            0   -796.65678    14447.117 
      59   0.11746378   -796.65875            0   -796.65684    14447.533 
      60   0.13496465    -796.6591            0    -796.6569    14447.982 
      61   0.15348033   -796.65947            0   -796.65697    14448.462 
      62   0.17295857   -796.65986            0   -796.65704    14448.974 
      63   0.19334363   -796.66026            0   -796.65711    14449.519 
      64   0.21457689   -796.66069            0    -796.6572    14450.096 
      65   0.23659713   -796.66114            0   -796.65728    14450.705 
      66   0.25934074    -796.6616            0   -796.65737    14451.346 
      67   0.28274183   -796.66208            0   -796.65747    14452.015 
      68   0.30673273   -796.66257            0   -796.65758    14452.716 
      69   0.33124306   -796.66308            0   -796.65768    14453.447 
      70   0.35620156    -796.6636            0    -796.6578    14454.207 
      71   0.38153534   -796.66413            0   -796.65791    14454.987 
      72   0.40716709   -796.66467            0   -796.65804    14455.797 
      73   0.43302379   -796.66522            0   -796.65816    14456.633 
      74   0.45903215   -796.66577            0    -796.6583    14457.494 
      75   0.48511182   -796.66634            0   -796.65844    14458.379 
      76   0.51119041   -796.66691            0   -796.65858    14459.284 
      77   0.53718471   -796.66749            0   -796.65874    14460.213 
      78   0.56302582   -796.66808            0   -796.65891     14461.16 
      79   0.58862409   -796.66867            0   -796.65908    14462.124 
      80   0.61389077   -796.66926            0   -796.65926    14463.093 
      81   0.63881716   -796.66985            0   -796.65945    14464.092 
      82   0.66225551   -796.67044            0   -796.65965    14465.004 
      83   0.67798858   -796.67103            0   -796.65999    14466.111 
      84   0.54044093   -796.67146            0   -796.66266    14463.989 
      85  0.033736746   -796.67159            0   -796.67104     14457.89 
      86  0.032951634   -796.67172            0   -796.67118    14458.159 
      87  0.036066628   -796.67184            0   -796.67125    14458.322 
      88  0.040982384   -796.67197            0   -796.67131    14458.541 
      89   0.04613641   -796.67211            0   -796.67136    14458.767 
      90  0.051546703   -796.67226            0   -796.67142    14459.004 
      91  0.057189806   -796.67241            0   -796.67148    14459.253 
      92  0.063054019   -796.67258            0   -796.67155    14459.511 
      93   0.06912432   -796.67274            0   -796.67162     14459.78 
      94  0.075385646   -796.67292            0   -796.67169    14460.057 
      95  0.081823042    -796.6731            0   -796.67177    14460.345 
      96  0.088419708   -796.67329            0   -796.67185    14460.639 
      97  0.095160707   -796.67348            0   -796.67193    14460.941 
      98   0.10202697   -796.67368            0   -796.67202    14461.248 
      99   0.10900514   -796.67389            0   -796.67211    14461.565 
     100   0.11607037    -796.6741            0    -796.6722    14461.878 
     101    0.1232173   -796.67431            0    -796.6723    14462.209 
     102   0.13039288   -796.67453            0    -796.6724    14462.515 
     103   0.13761285   -796.67475            0   -796.67251    14462.883 
     104   0.14452986   -796.67497            0   -796.67262    14463.095 
     105   0.15041955   -796.67519            0   -796.67274    14463.664 
     106   0.14690762   -796.67541            0   -796.67302    14463.119 
     107   0.10101816   -796.67556            0   -796.67392     14464.17 
     108  0.018504958   -796.67563            0   -796.67533    14462.066 
     109  0.013764418    -796.6757            0   -796.67547    14462.147 
     110  0.015828331   -796.67576            0   -796.67551    14462.227 
     111  0.018086384   -796.67584            0   -796.67554    14462.326 
     112  0.020471515   -796.67591            0   -796.67558    14462.426 
     113  0.022981743   -796.67599            0   -796.67562    14462.531 
     114  0.025610209   -796.67608            0   -796.67566    14462.641 
     115  0.028351598   -796.67617            0   -796.67571    14462.755 
     116  0.031199447   -796.67627            0   -796.67576    14462.872 
     117  0.034147594   -796.67636            0   -796.67581    14462.993 
     118  0.037189208   -796.67647            0   -796.67586    14463.117 
     119  0.040317656   -796.67658            0   -796.67592    14463.244 
     120  0.043525658   -796.67669            0   -796.67598    14463.372 
     121  0.046806184    -796.6768            0   -796.67604    14463.503 
     122  0.050151437   -796.67692            0   -796.67611    14463.635 
     123  0.053554297   -796.67705            0   -796.67617    14463.768 
     124  0.057006147   -796.67717            0   -796.67624    14463.899 
     125  0.060500519    -796.6773            0   -796.67632    14464.031 
     126  0.064026461   -796.67743            0   -796.67639     14464.16 
     127  0.067581925   -796.67757            0   -796.67647    14464.294 
     128  0.071145004    -796.6777            0   -796.67655    14464.411 
     129  0.074738531   -796.67784            0   -796.67663    14464.564 
     130  0.078266547   -796.67799            0   -796.67671    14464.616 
     131  0.081898047   -796.67813            0   -796.67679    14464.933 
     132  0.084644868   -796.67828            0    -796.6769    14464.461 
     133  0.084597731   -796.67839            0   -796.67701    14466.136 
     134  0.042983589   -796.67847            0   -796.67777    14463.377 
     135 0.0046088603   -796.67849            0   -796.67842    14463.521 
     136 0.0038583804   -796.67852            0   -796.67845    14463.832 
     137 0.0041614463   -796.67855            0   -796.67848    14463.925 
     138 0.0049291993   -796.67858            0    -796.6785    14463.959 
     139 0.0057952359   -796.67861            0   -796.67852    14463.984 
     140 0.0067269677   -796.67865            0   -796.67854    14464.011 
     141 0.0077211553   -796.67869            0   -796.67857    14464.039 
     142 0.0087757747   -796.67874            0   -796.67859    14464.068 
     143 0.0098887066   -796.67878            0   -796.67862    14464.098 
     144  0.011057702   -796.67883            0   -796.67865     14464.13 
     145  0.012280393   -796.67888            0   -796.67868    14464.162 
     146  0.013554297   -796.67894            0   -796.67872    14464.195 
     147  0.014876819   -796.67899            0   -796.67875    14464.228 
     148  0.016245262   -796.67905            0   -796.67879    14464.262 
     149  0.017656828   -796.67911            0   -796.67883    14464.297 
     150  0.019108626   -796.67918            0   -796.67887    14464.331 
     151  0.020597682   -796.67924            0   -796.67891    14464.366 
     152  0.022120938   -796.67931            0   -796.67895      14464.4 
     153  0.023675259   -796.67938            0     -796.679    14464.434 
     154   0.02525744   -796.67945            0   -796.67904    14464.467 
     155  0.026864216   -796.67953            0   -796.67909    14464.499 
     156  0.028492293    -796.6796            0   -796.67914    14464.531 
     157  0.030138312   -796.67968            0   -796.67919    14464.561 
     158  0.031798855   -796.67976            0   -796.67924     14464.59 
     159  0.033470527   -796.67984            0   -796.67929    14464.617 
     160  0.035149854   -796.67992            0   -796.67935    14464.643 
     161  0.036833419      -796.68            0    -796.6794    14464.667 
     162  0.038517589   -796.68009            0   -796.67946    14464.688 
     163  0.040199328   -796.68017            0   -796.67952    14464.707 
     164  0.041873701   -796.68026            0   -796.67958    14464.722 
     165  0.043540308   -796.68035            0   -796.67964    14464.742 
     166  0.045168587   -796.68043            0    -796.6797    14464.729 
     167  0.046651694   -796.68052            0   -796.67976    14464.819 
     168  0.045844146   -796.68061            0   -796.67986     14464.48 
     169  0.026637874   -796.68066            0   -796.68023    14465.054 
     170 0.00054664693   -796.68067            0   -796.68066    14464.504 
     171 0.00077876422   -796.68068            0   -796.68067    14464.311 
     172 0.0010569589   -796.68069            0   -796.68068     14464.18 
     173 0.0013309405   -796.68071            0   -796.68069    14464.126 
     174 0.0016240671   -796.68072            0    -796.6807    14464.114 
     175 0.0019453644   -796.68074            0   -796.68071    14464.112 
     176 0.0022935392   -796.68076            0   -796.68072    14464.111 
     177 0.0026681359   -796.68078            0   -796.68073    14464.111 
     178 0.0030685632    -796.6808            0   -796.68075     14464.11 
     179 0.0034941057   -796.68082            0   -796.68076    14464.109 
     180 0.0039439977   -796.68084            0   -796.68078    14464.108 
     181 0.0044174262   -796.68087            0   -796.68079    14464.106 
     182 0.0049135341   -796.68089            0   -796.68081    14464.104 
     183 0.0054314258   -796.68092            0   -796.68083    14464.101 
     184 0.0059701638   -796.68095            0   -796.68085    14464.098 
     185 0.0065287719   -796.68098            0   -796.68087    14464.094 
     186 0.0071062375   -796.68101            0   -796.68089     14464.09 
     187 0.0077015147   -796.68104            0   -796.68092    14464.085 
     188 0.0083135265   -796.68107            0   -796.68094     14464.08 
     189 0.0089411641   -796.68111            0   -796.68096    14464.073 
     190 0.0095832937   -796.68114            0   -796.68099    14464.066 
     191  0.010238756   -796.68118            0   -796.68101    14464.058 
     192  0.010906373   -796.68122            0   -796.68104    14464.049 
     193  0.011584944   -796.68125            0   -796.68106    14464.039 
     194  0.012273253   -796.68129            0   -796.68109    14464.028 
     195  0.012970073   -796.68133            0   -796.68112    14464.015 
     196  0.013674162   -796.68137            0   -796.68115    14464.002 
     197   0.01438435   -796.68141            0   -796.68117    14463.987 
     198  0.015099372   -796.68145            0    -796.6812    14463.971 
     199  0.015817963   -796.68149            0   -796.68123    14463.954 
     200  0.016538839   -796.68153            0   -796.68126    14463.935 
     201  0.017260816   -796.68157            0   -796.68129    14463.915 
     202  0.017982255   -796.68161            0   -796.68132    14463.891 
     203  0.018701269   -796.68165            0   -796.68135    14463.872 
     204  0.019395257   -796.68169            0   -796.68138    14463.832 
     205  0.019836619   -796.68173            0   -796.68141    14463.853 
     206  0.017084922   -796.68177            0   -796.68149    14463.603 
     207 0.0029809105   -796.68178            0   -796.68174    14463.648 
     208 0.00019240244   -796.68179            0   -796.68178    14463.563 
     209 0.00030369762   -796.68179            0   -796.68179    14463.526 
     210 0.00042361445    -796.6818            0   -796.68179    14463.503 
     211 0.00054300303    -796.6818            0   -796.68179    14463.491 
     212 0.00067024727   -796.68181            0    -796.6818    14463.484 
     213 0.00080940708   -796.68182            0    -796.6818    14463.478 
     214 0.0009609449   -796.68182            0   -796.68181    14463.472 
     215 0.0011246765   -796.68183            0   -796.68181    14463.465 
     216 0.0013003467   -796.68184            0   -796.68182    14463.457 
     217 0.0014876755   -796.68185            0   -796.68183    14463.449 
     218  0.001686363   -796.68186            0   -796.68183     14463.44 
     219 0.0018960909   -796.68187            0   -796.68184    14463.431 
     220 0.0021165228   -796.68188            0   -796.68185     14463.42 
     221 0.0023473051    -796.6819            0   -796.68186    14463.409 
     222 0.0025880677   -796.68191            0   -796.68187    14463.398 
     223 0.0028384245   -796.68192            0   -796.68187    14463.385 
     224  0.003097975   -796.68193            0   -796.68188    14463.372 
     225 0.0033663042   -796.68195            0   -796.68189    14463.358 
     226 0.0036429841   -796.68196            0    -796.6819    14463.343 
     227 0.0039275748   -796.68197            0   -796.68191    14463.327 
     228 0.0042196247   -796.68199            0   -796.68192     14463.31 
     229 0.0045186722     -796.682            0   -796.68193    14463.293 
     230 0.0048242471   -796.68202            0   -796.68194    14463.274 
     231 0.0051358698   -796.68203            0   -796.68195    14463.254 
     232 0.0054530493   -796.68205            0   -796.68196    14463.234 
     233 0.0057752944   -796.68206            0   -796.68197    14463.212 
     234 0.0061021082   -796.68208            0   -796.68198     14463.19 
     235 0.0064329882   -796.68209            0   -796.68199    14463.166 
     236 0.0067674345   -796.68211            0     -796.682    14463.142 
     237 0.0071049428   -796.68212            0   -796.68201    14463.116 
     238 0.0074450061   -796.68214            0   -796.68202    14463.088 
     239  0.007787126   -796.68215            0   -796.68203     14463.06 
     240 0.0081307846   -796.68217            0   -796.68204    14463.031 
     241  0.008475523   -796.68218            0   -796.68204        14463 
     242 0.0088205361    -796.6822            0   -796.68205    14462.967 
     243 0.0091643686   -796.68221            0   -796.68206    14462.937 
     244 0.0094845933   -796.68222            0   -796.68207    14462.888 
     245 0.0095176901   -796.68223            0   -796.68208      14462.9 
     246 0.0063807656   -796.68224            0   -796.68214    14462.662 
     247 0.00024449845   -796.68224            0   -796.68224    14462.657 
     248 0.00041862644   -796.68224            0   -796.68224    14462.691 
     249 0.0004901618   -796.68225            0   -796.68224    14462.683 
     250 0.00057120623   -796.68225            0   -796.68224    14462.674 
     251 0.0006580464   -796.68225            0   -796.68224    14462.665 
     252 0.00075054106   -796.68225            0   -796.68224    14462.654 
     253 0.00084856007   -796.68226            0   -796.68224    14462.643 
     254 0.00095196362   -796.68226            0   -796.68224    14462.632 
     255  0.001060605   -796.68226            0   -796.68224    14462.619 
     256 0.0011743297   -796.68226            0   -796.68224    14462.606 
     257 0.0012929766   -796.68227            0   -796.68225    14462.591 
     258 0.0014163784   -796.68227            0   -796.68225    14462.576 
     259 0.0015443604   -796.68227            0   -796.68225    14462.561 
     260 0.0016767415   -796.68227            0   -796.68225    14462.544 
     261 0.0018133355   -796.68228            0   -796.68225    14462.527 
     262 0.0019539517   -796.68228            0   -796.68225    14462.508 
     263 0.0020983931   -796.68228            0   -796.68225    14462.489 
     264 0.0022464587   -796.68228            0   -796.68225    14462.469 
     265  0.002397944   -796.68229            0   -796.68225    14462.448 
     266   0.00255264   -796.68229            0   -796.68225    14462.426 
     267 0.0027103357   -796.68229            0   -796.68224    14462.403 
     268 0.0028708149   -796.68229            0   -796.68224    14462.379 
     269 0.0030338643   -796.68229            0   -796.68224    14462.354 
     270 0.0031992562   -796.68229            0   -796.68224    14462.328 
     271 0.0033667862   -796.68229            0   -796.68224    14462.301 
     272 0.0035361553   -796.68229            0   -796.68223    14462.272 
     273 0.0037070549   -796.68229            0   -796.68223    14462.246 
     274 0.0038770082   -796.68229            0   -796.68223    14462.209 
     275 0.0040292725   -796.68229            0   -796.68222    14462.199 
     276 0.0039870643   -796.68229            0   -796.68222    14462.096 
     277 0.0025570112   -796.68228            0   -796.68224    14462.222 
     278 0.00020176048   -796.68228            0   -796.68228     14462.09 
     279 0.00026075812   -796.68228            0   -796.68228    14462.056 
     280 0.00030174277   -796.68228            0   -796.68228    14462.049 
     281 0.00035010666   -796.68228            0   -796.68227     14462.04 
     282 0.00040185191   -796.68228            0   -796.68227     14462.03 
     283 0.0004568891   -796.68228            0   -796.68227    14462.019 
     284 0.00051514904   -796.68228            0   -796.68227    14462.007 
     285 0.00057655532   -796.68227            0   -796.68226    14461.995 
     286 0.00064102874   -796.68227            0   -796.68226    14461.982 
     287 0.00070848552   -796.68227            0   -796.68226    14461.968 
     288 0.00077883855   -796.68227            0   -796.68226    14461.953 
     289 0.00085199682   -796.68227            0   -796.68225    14461.938 
     290 0.00092786616   -796.68226            0   -796.68225    14461.922 
     291 0.0010063489   -796.68226            0   -796.68224    14461.905 
     292 0.0010873446   -796.68226            0   -796.68224    14461.887 
     293 0.0011707498   -796.68225            0   -796.68223    14461.868 
     294  0.001256458   -796.68225            0   -796.68223    14461.848 
     295 0.0013443596   -796.68224            0   -796.68222    14461.827 
     296 0.0014343453   -796.68224            0   -796.68222    14461.806 
     297 0.0015263007   -796.68224            0   -796.68221    14461.783 
     298  0.001620114   -796.68223            0    -796.6822     14461.76 
     299 0.0017156624   -796.68222            0    -796.6822    14461.735 
     300 0.0018128396   -796.68222            0   -796.68219     14461.71 
     301 0.0019114871   -796.68221            0   -796.68218    14461.683 
     302  0.002011493    -796.6822            0   -796.68217    14461.658 
     303 0.0021121236    -796.6822            0   -796.68216    14461.621 
     304 0.0022101468   -796.68219            0   -796.68215    14461.616 
     305 0.0022737194   -796.68218            0   -796.68214    14461.514 
     306 0.0020520442   -796.68217            0   -796.68214    14461.679 
     307 0.00072818731   -796.68217            0   -796.68216    14461.403 
     308 0.00011492042   -796.68217            0   -796.68216    14461.464 
     309 0.00011889355   -796.68216            0   -796.68216    14461.481 
     310 0.0001404295   -796.68216            0   -796.68216    14461.477 
     311 0.00016652213   -796.68216            0   -796.68216    14461.469 
     312 0.00019479784   -796.68216            0   -796.68215     14461.46 
     313 0.00022516902   -796.68215            0   -796.68215    14461.451 
     314 0.00025759925   -796.68215            0   -796.68215    14461.441 
     315 0.0002920497   -796.68215            0   -796.68214     14461.43 
     316 0.00032847907   -796.68214            0   -796.68214    14461.418 
     317 0.00036684365   -796.68214            0   -796.68213    14461.405 
     318 0.00040709741   -796.68213            0   -796.68213    14461.392 
     319 0.0004491921   -796.68213            0   -796.68212    14461.378 
     320 0.00049307732   -796.68212            0   -796.68212    14461.364 
     321 0.00053870057   -796.68212            0   -796.68211    14461.348 
     322 0.00058600743   -796.68211            0    -796.6821    14461.332 
     323 0.00063494149   -796.68211            0    -796.6821    14461.315 
     324 0.00068544466    -796.6821            0   -796.68209    14461.297 
     325 0.00073745719   -796.68209            0   -796.68208    14461.278 
     326 0.00079091774   -796.68208            0   -796.68207    14461.258 
     327 0.00084576349   -796.68208            0   -796.68206    14461.238 
     328 0.00090193026   -796.68207            0   -796.68205    14461.217 
     329 0.00095935265   -796.68206            0   -796.68204    14461.195 
     330 0.0010179641   -796.68205            0   -796.68203    14461.172 
     331 0.0010776971   -796.68204            0   -796.68202    14461.148 
     332 0.0011384831   -796.68203            0   -796.68201    14461.124 
     333 0.0012002529   -796.68202            0     -796.682    14461.098 
     334  0.001262937   -796.68201            0   -796.68199    14461.072 
     335 0.0013264629     -796.682            0   -796.68197    14461.045 
     336 0.0013907652   -796.68198            0   -796.68196    14461.016 
     337 0.0014557434   -796.68197            0   -796.68195    14460.989 
     338 0.0015213229   -796.68196            0   -796.68193    14460.954 
     339 0.0015862853   -796.68194            0   -796.68192    14460.938 
     340 0.0016412138   -796.68193            0    -796.6819    14460.856 
     341  0.001556111   -796.68191            0   -796.68189    14460.991 
     342 0.00058509541   -796.68191            0    -796.6819    14460.719 
     343 2.5139367e-05   -796.68191            0   -796.68191    14460.753 
     344 3.1602807e-05    -796.6819            0    -796.6819    14460.787 
     345 3.826706e-05    -796.6819            0    -796.6819    14460.805 
     346 4.7233552e-05    -796.6819            0    -796.6819     14460.81 
     347 5.8491627e-05    -796.6819            0    -796.6819    14460.807 
     348 7.1262694e-05   -796.68189            0   -796.68189    14460.801 
     349 8.5287528e-05   -796.68189            0   -796.68189    14460.794 
     350 0.00010052359   -796.68189            0   -796.68188    14460.787 
     351 0.00011695391   -796.68188            0   -796.68188    14460.778 
     352 0.00013456054   -796.68188            0   -796.68187    14460.769 
     353 0.00015332405   -796.68187            0   -796.68187    14460.759 
     354 0.00017322368   -796.68187            0   -796.68186    14460.749 
     355 0.00019423743   -796.68186            0   -796.68186    14460.738 
     356 0.00021634202   -796.68185            0   -796.68185    14460.726 
     357 0.00023951295   -796.68185            0   -796.68184    14460.713 
     358 0.00026372457   -796.68184            0   -796.68184      14460.7 
     359 0.00028895011   -796.68183            0   -796.68183    14460.686 
     360 0.00031516167   -796.68183            0   -796.68182    14460.672 
     361 0.0003423303   -796.68182            0   -796.68181    14460.657 
     362 0.00037042606   -796.68181            0    -796.6818    14460.641 
     363 0.00039941805    -796.6818            0   -796.68179    14460.624 
     364 0.00042927447   -796.68179            0   -796.68178    14460.607 
     365 0.00045996271   -796.68178            0   -796.68177    14460.588 
     366 0.00049144923   -796.68177            0   -796.68176     14460.57 
     367 0.0005236998   -796.68176            0   -796.68175     14460.55 
     368 0.00055667949   -796.68175            0   -796.68174     14460.53 
     369 0.00059035269   -796.68174            0   -796.68173    14460.509 
     370 0.00062468333   -796.68173            0   -796.68172    14460.487 
     371 0.00065963456   -796.68171            0    -796.6817    14460.464 
     372 0.00069516924    -796.6817            0   -796.68169    14460.441 
     373 0.00073124948   -796.68169            0   -796.68167    14460.417 
     374 0.00076783795   -796.68167            0   -796.68166    14460.392 
     375 0.00080489385   -796.68166            0   -796.68164    14460.367 
     376 0.00084238387   -796.68164            0   -796.68163     14460.34 
     377 0.00088022676   -796.68162            0   -796.68161    14460.314 
     378 0.00091827786   -796.68161            0   -796.68159    14460.283 
     379 0.0009539669   -796.68159            0   -796.68157    14460.264 
     380 0.00096112945   -796.68157            0   -796.68156    14460.201 
     381 0.00067390233   -796.68156            0   -796.68154    14460.274 
     382 4.3476885e-05   -796.68155            0   -796.68155    14460.206 
     383 5.1700912e-05   -796.68155            0   -796.68155    14460.179 
     384 5.8117988e-05   -796.68155            0   -796.68154    14460.174 
     385 6.7579755e-05   -796.68154            0   -796.68154    14460.166 
     386 7.7718889e-05   -796.68154            0   -796.68153    14460.158 
     387 8.8526361e-05   -796.68153            0   -796.68153    14460.149 
     388 9.9989013e-05   -796.68152            0   -796.68152     14460.14 
     389 0.00011209558   -796.68152            0   -796.68152     14460.13 
     390 0.00012483312   -796.68151            0   -796.68151    14460.119 
     391 0.00013818858    -796.6815            0    -796.6815    14460.108 
     392 0.00015214788    -796.6815            0   -796.68149    14460.097 
     393 0.0001666966   -796.68149            0   -796.68149    14460.084 
     394 0.00018181943   -796.68148            0   -796.68148    14460.071 
     395 0.00019750081   -796.68147            0   -796.68147    14460.058 
     396 0.00021372419   -796.68146            0   -796.68146    14460.044 
     397 0.00023047303   -796.68145            0   -796.68145    14460.029 
     398 0.00024772946   -796.68144            0   -796.68144    14460.014 
     399 0.00026547639   -796.68143            0   -796.68143    14459.998 
     400 0.00028369409   -796.68142            0   -796.68142    14459.981 
     401 0.00030236641   -796.68141            0    -796.6814    14459.964 
     402 0.00032146864    -796.6814            0   -796.68139    14459.946 
     403 0.0003409931   -796.68138            0   -796.68138    14459.928 
     404 0.00036089185   -796.68137            0   -796.68137    14459.909 
     405 0.00038121173   -796.68136            0   -796.68135    14459.888 
     406 0.00040174802   -796.68134            0   -796.68134    14459.872 
     407 0.00042293443   -796.68133            0   -796.68132    14459.839 
     408 0.00044316133   -796.68131            0   -796.68131    14459.851 
     409 0.00046367642    -796.6813            0   -796.68129    14459.735 
     410 0.00038254409   -796.68129            0   -796.68128    14459.907 
     411 5.1304591e-05   -796.68129            0   -796.68129    14459.819 
     412 3.1379783e-05   -796.68128            0   -796.68128     14459.78 
     413 3.0447543e-05   -796.68128            0   -796.68128    14459.771 
     414 3.598633e-05   -796.68128            0   -796.68127    14459.765 
     415 4.2078384e-05   -796.68127            0   -796.68127    14459.758 
     416 4.8624737e-05   -796.68127            0   -796.68126    14459.751 
     417 5.561916e-05   -796.68126            0   -796.68126    14459.744 
     418 6.3054604e-05   -796.68125            0   -796.68125    14459.736 
     419 7.0923636e-05   -796.68125            0   -796.68125    14459.727 
     420 7.9218345e-05   -796.68124            0   -796.68124    14459.718 
     421 8.7930393e-05   -796.68123            0   -796.68123    14459.708 
     422 9.7051006e-05   -796.68123            0   -796.68123    14459.698 
     423  0.000106571   -796.68122            0   -796.68122    14459.687 
     424 0.00011648077   -796.68121            0   -796.68121    14459.676 
     425 0.00012677033    -796.6812            0    -796.6812    14459.664 
     426 0.00013742932   -796.68119            0   -796.68119    14459.652 
     427  0.000148447   -796.68118            0   -796.68118    14459.639 
     428 0.00015981226   -796.68117            0   -796.68117    14459.626 
     429 0.00017151369   -796.68116            0   -796.68116    14459.612 
     430 0.00018353951   -796.68115            0   -796.68115    14459.597 
     431 0.00019587769   -796.68114            0   -796.68114    14459.582 
     432 0.00020851577   -796.68113            0   -796.68113    14459.566 
     433 0.00022144131   -796.68112            0   -796.68111     14459.55 
     434 0.00023464095   -796.68111            0    -796.6811    14459.534 
     435 0.00024810256   -796.68109            0   -796.68109    14459.516 
     436 0.00026181016   -796.68108            0   -796.68107    14459.499 
     437 0.00027575707   -796.68107            0   -796.68106     14459.48 
     438 0.00028990989   -796.68105            0   -796.68105    14459.462 
     439 0.00030431461   -796.68104            0   -796.68103    14459.441 
     440 0.00031878346   -796.68102            0   -796.68102    14459.425 
     441 0.00033405938     -796.681            0     -796.681    14459.391 
     442 0.00034978886   -796.68099            0   -796.68098    14459.417 
     443  0.000377536   -796.68097            0   -796.68097    14459.254 
     444 0.00013335283   -796.68097            0   -796.68097    14459.383 
     445 1.971344e-05   -796.68097            0   -796.68097     14459.35 
     446 1.884729e-05   -796.68096            0   -796.68096    14459.343 
     447 2.2295071e-05   -796.68096            0   -796.68096    14459.338 
     448 2.6087062e-05   -796.68095            0   -796.68095    14459.332 
     449 3.0163425e-05   -796.68095            0   -796.68095    14459.326 
     450 3.4520622e-05   -796.68094            0   -796.68094    14459.319 
     451 3.9154355e-05   -796.68094            0   -796.68094    14459.312 
     452 4.4060147e-05   -796.68093            0   -796.68093    14459.305 
     453 4.9233209e-05   -796.68093            0   -796.68093    14459.297 
     454  5.46685e-05   -796.68092            0   -796.68092    14459.289 
     455 6.0360701e-05   -796.68091            0   -796.68091     14459.28 
     456 6.6304248e-05    -796.6809            0    -796.6809    14459.271 
     457 7.2493312e-05    -796.6809            0    -796.6809    14459.261 
     458 7.8921833e-05   -796.68089            0   -796.68089    14459.251 
     459 8.5583496e-05   -796.68088            0   -796.68088     14459.24 
     460 9.2471776e-05   -796.68087            0   -796.68087    14459.229 
     461  9.95799e-05   -796.68086            0   -796.68086    14459.218 
     462 0.00010690092   -796.68085            0   -796.68085    14459.206 
     463 0.0001144276   -796.68084            0   -796.68084    14459.193 
     464 0.00012215266   -796.68083            0   -796.68083     14459.18 
     465 0.00013006834   -796.68082            0   -796.68082    14459.167 
     466 0.00013816726   -796.68081            0   -796.68081    14459.153 
     467 0.00014644065    -796.6808            0   -796.68079    14459.139 
     468 0.00015488249   -796.68078            0   -796.68078    14459.124 
     469 0.00016347914   -796.68077            0   -796.68077    14459.109 
     470 0.00017223704   -796.68076            0   -796.68076    14459.093 
     471 0.00018110561   -796.68075            0   -796.68074    14459.078 
     472 0.00019021109   -796.68073            0   -796.68073    14459.059 
     473 0.00019920301   -796.68072            0   -796.68071    14459.051 
     474 0.00021021508    -796.6807            0    -796.6807    14459.002 
     475 0.00022331219   -796.68069            0   -796.68068    14459.085 
     476 0.00012675966   -796.68068            0   -796.68068    14458.946 
     477 9.1885657e-06   -796.68068            0   -796.68068    14458.973 
     478 7.7209258e-06   -796.68068            0   -796.68068    14458.988 
     479 7.9746414e-06   -796.68068            0   -796.68068    14458.991 
     480 9.6189257e-06   -796.68067            0   -796.68067    14458.989 
     481 1.1632568e-05   -796.68067            0   -796.68067    14458.985 
     482 1.3838612e-05   -796.68067            0   -796.68067    14458.981 
     483 1.6228862e-05   -796.68066            0   -796.68066    14458.976 
     484 1.8801619e-05   -796.68066            0   -796.68066    14458.971 
     485 2.1554438e-05   -796.68065            0   -796.68065    14458.966 
     486 2.4484713e-05   -796.68065            0   -796.68065     14458.96 
     487 2.7589657e-05   -796.68064            0   -796.68064    14458.954 
     488 3.0866311e-05   -796.68064            0   -796.68064    14458.947 
     489 3.4311539e-05   -796.68063            0   -796.68063     14458.94 
     490 3.7922043e-05   -796.68062            0   -796.68062    14458.932 
     491 4.1694356e-05   -796.68062            0   -796.68062    14458.925 
     492 4.5624852e-05   -796.68061            0   -796.68061    14458.916 
     493 4.9709729e-05    -796.6806            0    -796.6806    14458.908 
     494 5.3945031e-05   -796.68059            0   -796.68059    14458.899 
     495 5.8326699e-05   -796.68059            0   -796.68058    14458.889 
     496 6.2850499e-05   -796.68058            0   -796.68058    14458.879 
     497 6.7512066e-05   -796.68057            0   -796.68057    14458.869 
     498 7.2306892e-05   -796.68056            0   -796.68056    14458.859 
     499 7.7230343e-05   -796.68055            0   -796.68055    14458.848 
     500 8.2277656e-05   -796.68054            0   -796.68054    14458.836 
     501 8.744395e-05   -796.68053            0   -796.68053    14458.825 
     502 9.2724235e-05   -796.68052            0   -796.68052    14458.813 
     503 9.8113358e-05   -796.68051            0   -796.68051      14458.8 
     504 0.00010360626    -796.6805            0   -796.68049    14458.787 
     505 0.00010919711   -796.68048            0   -796.68048    14458.774 
     506 0.0001148822   -796.68047            0   -796.68047     14458.76 
     507 0.00012065035   -796.68046            0   -796.68046    14458.747 
     508 0.00012651529   -796.68045            0   -796.68044    14458.732 
     509 0.00013240787   -796.68043            0   -796.68043    14458.719 
     510 0.00013859927   -796.68042            0   -796.68042    14458.697 
     511 0.00014468287    -796.6804            0    -796.6804    14458.707 
     512 0.00015886151   -796.68039            0   -796.68039    14458.602 
     513 0.0001047975   -796.68038            0   -796.68038    14458.741 
     514 1.8269481e-06   -796.68038            0   -796.68038    14458.722 
     515 2.5745919e-06   -796.68038            0   -796.68038    14458.702 
     516 3.0028383e-06   -796.68038            0   -796.68038    14458.683 
     517 3.1808045e-06   -796.68038            0   -796.68038    14458.668 
     518 3.6005281e-06   -796.68038            0   -796.68038    14458.659 
     519 4.4187208e-06   -796.68037            0   -796.68037    14458.654 
     520 5.4706258e-06   -796.68037            0   -796.68037    14458.651 
     521 6.6605466e-06   -796.68037            0   -796.68037    14458.647 
     522 7.9677438e-06   -796.68037            0   -796.68037    14458.644 
     523 9.388593e-06   -796.68036            0   -796.68036     14458.64 
     524 1.0921509e-05   -796.68036            0   -796.68036    14458.636 
     525 1.2565074e-05   -796.68035            0   -796.68035    14458.632 
     526 1.4317759e-05   -796.68035            0   -796.68035    14458.627 
     527 1.6177922e-05   -796.68035            0   -796.68034    14458.622 
     528 1.8143816e-05   -796.68034            0   -796.68034    14458.616 
     529 2.0213588e-05   -796.68033            0   -796.68033    14458.611 
     530 2.2385283e-05   -796.68033            0   -796.68033    14458.604 
     531 2.4656845e-05   -796.68032            0   -796.68032    14458.598 
     532 2.7026118e-05   -796.68032            0   -796.68032    14458.591 
     533 2.9490849e-05   -796.68031            0   -796.68031    14458.584 
     534 3.2048692e-05    -796.6803            0    -796.6803    14458.577 
     535 3.4697208e-05    -796.6803            0    -796.6803    14458.569 
     536 3.7433866e-05   -796.68029            0   -796.68029    14458.561 
     537 4.0256051e-05   -796.68028            0   -796.68028    14458.553 
     538 4.316106e-05   -796.68027            0   -796.68027    14458.545 
     539 4.6146109e-05   -796.68026            0   -796.68026    14458.536 
     540 4.9208336e-05   -796.68025            0   -796.68025    14458.526 
     541 5.2344798e-05   -796.68025            0   -796.68024    14458.517 
     542 5.5552485e-05   -796.68024            0   -796.68023    14458.507 
     543 5.8828298e-05   -796.68023            0   -796.68023    14458.497 
     544 6.2169118e-05   -796.68022            0   -796.68021    14458.486 
     545 6.557163e-05   -796.68021            0    -796.6802    14458.476 
     546 6.903282e-05   -796.68019            0   -796.68019    14458.465 
     547 7.2548542e-05   -796.68018            0   -796.68018    14458.453 
     548 7.6117937e-05   -796.68017            0   -796.68017    14458.441 
     549 7.9729152e-05   -796.68016            0   -796.68016     14458.43 
     550 8.3408312e-05   -796.68015            0   -796.68015    14458.417 
     551 8.7049054e-05   -796.68014            0   -796.68013    14458.407 
     552 9.1119518e-05   -796.68012            0   -796.68012    14458.383 
     553 9.491973e-05   -796.68011            0   -796.68011    14458.411 
     554 9.1764637e-05    -796.6801            0    -796.6801    14458.293 
     555 1.1065875e-06    -796.6801            0    -796.6801    14458.304 
     556 1.7197852e-06    -796.6801            0    -796.6801    14458.319 
     557 2.2064531e-06    -796.6801            0    -796.6801    14458.336 
     558 2.3364865e-06    -796.6801            0    -796.6801    14458.351 
     559 2.2682127e-06    -796.6801            0    -796.6801    14458.359 
     560 2.5415375e-06   -796.68009            0   -796.68009    14458.361 
     561 3.1247115e-06   -796.68009            0   -796.68009    14458.359 
     562 3.8248447e-06   -796.68009            0   -796.68009    14458.357 
     563 4.5958739e-06   -796.68009            0   -796.68009    14458.354 
     564 5.4350127e-06   -796.68008            0   -796.68008    14458.351 
     565 6.3419157e-06   -796.68008            0   -796.68008    14458.348 
     566 7.3157697e-06   -796.68008            0   -796.68008    14458.344 
     567 8.3556724e-06   -796.68007            0   -796.68007    14458.341 
     568 9.4606592e-06   -796.68007            0   -796.68007    14458.337 
     569  1.06297e-05   -796.68006            0   -796.68006    14458.332 
     570 1.1861702e-05   -796.68006            0   -796.68006    14458.328 
     571 1.315551e-05   -796.68005            0   -796.68005    14458.323 
     572 1.4509907e-05   -796.68005            0   -796.68005    14458.318 
     573 1.5923616e-05   -796.68004            0   -796.68004    14458.312 
     574  1.73953e-05   -796.68004            0   -796.68004    14458.307 
     575 1.8923567e-05   -796.68003            0   -796.68003    14458.301 
     576 2.0506966e-05   -796.68003            0   -796.68003    14458.295 
     577 2.2143992e-05   -796.68002            0   -796.68002    14458.288 
     578 2.3833086e-05   -796.68001            0   -796.68001    14458.282 
     579 2.5572636e-05   -796.68001            0      -796.68    14458.275 
     580 2.7360981e-05      -796.68            0      -796.68    14458.268 
     581 2.9196407e-05   -796.67999            0   -796.67999     14458.26 
     582 3.1077163e-05   -796.67998            0   -796.67998    14458.253 
     583 3.3001423e-05   -796.67997            0   -796.67997    14458.245 
     584 3.4967386e-05   -796.67997            0   -796.67996    14458.237 
     585 3.697303e-05   -796.67996            0   -796.67996    14458.228 
     586 3.9016781e-05   -796.67995            0   -796.67995     14458.22 
     587 4.1095606e-05   -796.67994            0   -796.67994    14458.211 
     588 4.3210763e-05   -796.67993            0   -796.67993    14458.202 
     589 4.5349599e-05   -796.67992            0   -796.67992    14458.193 
     590 4.7546243e-05   -796.67991            0   -796.67991    14458.182 
     591 4.9672751e-05    -796.6799            0    -796.6799    14458.176 
     592 5.2241819e-05   -796.67989            0   -796.67989    14458.151 
     593 5.3197341e-05   -796.67988            0   -796.67988    14458.194 
     594 2.0657643e-05   -796.67988            0   -796.67987    14458.132 
     595 1.7261062e-06   -796.67987            0   -796.67987    14458.142 
     596 1.6519039e-06   -796.67987            0   -796.67987    14458.146 
     597 1.9504726e-06   -796.67987            0   -796.67987    14458.145 
     598 2.3882957e-06   -796.67987            0   -796.67987    14458.143 
     599 2.8753754e-06   -796.67987            0   -796.67987    14458.141 
     600 3.4058141e-06   -796.67986            0   -796.67986    14458.139 
     601 3.9795371e-06   -796.67986            0   -796.67986    14458.136 
     602 4.5960267e-06   -796.67986            0   -796.67986    14458.133 
     603 5.2547134e-06   -796.67985            0   -796.67985     14458.13 
     604 5.9549877e-06   -796.67985            0   -796.67985    14458.127 
     605 6.6961983e-06   -796.67985            0   -796.67985    14458.123 
     606 7.4776536e-06   -796.67984            0   -796.67984     14458.12 
     607 8.2986217e-06   -796.67984            0   -796.67984    14458.116 
     608 9.1583318e-06   -796.67983            0   -796.67983    14458.111 
     609 1.0055974e-05   -796.67983            0   -796.67983    14458.107 
     610 1.0990701e-05   -796.67982            0   -796.67982    14458.103 
     611 1.1961628e-05   -796.67982            0   -796.67982    14458.098 
     612 1.2967833e-05   -796.67981            0   -796.67981    14458.093 
     613 1.4008361e-05   -796.67981            0   -796.67981    14458.088 
     614 1.5082219e-05    -796.6798            0    -796.6798    14458.082 
     615 1.6188383e-05    -796.6798            0   -796.67979    14458.077 
     616 1.7325795e-05   -796.67979            0   -796.67979    14458.071 
     617 1.8493361e-05   -796.67978            0   -796.67978    14458.065 
     618 1.968997e-05   -796.67978            0   -796.67978    14458.059 
     619 2.0914449e-05   -796.67977            0   -796.67977    14458.052 
     620 2.2165668e-05   -796.67976            0   -796.67976    14458.046 
     621 2.3442289e-05   -796.67975            0   -796.67975    14458.039 
     622 2.4743438e-05   -796.67975            0   -796.67975    14458.032 
     623 2.6066775e-05   -796.67974            0   -796.67974    14458.025 
     624 2.7414376e-05   -796.67973            0   -796.67973    14458.017 
     625 2.877362e-05   -796.67972            0   -796.67972     14458.01 
     626 3.0179779e-05   -796.67971            0   -796.67971    14458.001 
     627 3.1468064e-05    -796.6797            0    -796.6797    14457.998 
     628 3.2808886e-05   -796.67969            0   -796.67969    14457.971 
     629  2.63609e-05   -796.67969            0   -796.67969    14458.015 
     630 9.4172197e-07   -796.67969            0   -796.67969    14458.003 
     631 1.101036e-06   -796.67969            0   -796.67969     14457.99 
     632 1.0816106e-06   -796.67968            0   -796.67968    14457.981 
     633 1.1095252e-06   -796.67968            0   -796.67968    14457.977 
     634 1.3316309e-06   -796.67968            0   -796.67968    14457.974 
     635 1.6220552e-06   -796.67968            0   -796.67968    14457.973 
     636 1.9443119e-06   -796.67968            0   -796.67968    14457.971 
     637 2.2950745e-06   -796.67968            0   -796.67968    14457.969 
     638 2.6738265e-06   -796.67967            0   -796.67967    14457.966 
     639 3.0802308e-06   -796.67967            0   -796.67967    14457.964 
     640 3.5139088e-06   -796.67967            0   -796.67967    14457.961 
     641 3.974459e-06   -796.67966            0   -796.67966    14457.959 
     642 4.4614514e-06   -796.67966            0   -796.67966    14457.956 
     643 4.9744305e-06   -796.67966            0   -796.67966    14457.953 
     644 5.5129144e-06   -796.67965            0   -796.67965    14457.949 
     645 6.0763961e-06   -796.67965            0   -796.67965    14457.946 
     646 6.6643429e-06   -796.67965            0   -796.67965    14457.942 
     647 7.2761984e-06   -796.67964            0   -796.67964    14457.939 
     648 7.9113809e-06   -796.67964            0   -796.67964    14457.935 
     649 8.5692869e-06   -796.67963            0   -796.67963     14457.93 
     650 9.2492865e-06   -796.67963            0   -796.67963    14457.926 
     651 9.9507333e-06   -796.67962            0   -796.67962    14457.922 
     652 1.0672948e-05   -796.67962            0   -796.67962    14457.917 
     653 1.1415251e-05   -796.67961            0   -796.67961    14457.912 
     654 1.2176895e-05    -796.6796            0    -796.6796    14457.907 
     655 1.2957227e-05    -796.6796            0    -796.6796    14457.902 
     656 1.3755285e-05   -796.67959            0   -796.67959    14457.897 
     657 1.4570849e-05   -796.67959            0   -796.67959    14457.891 
     658 1.5401571e-05   -796.67958            0   -796.67958    14457.886 
     659 1.6251264e-05   -796.67957            0   -796.67957     14457.88 
     660 1.7104674e-05   -796.67957            0   -796.67957    14457.874 
     661 1.8009259e-05   -796.67956            0   -796.67956    14457.866 
     662 1.8817949e-05   -796.67955            0   -796.67955    14457.867 
     663 2.0131934e-05   -796.67954            0   -796.67954    14457.837 
     664 1.2944998e-05   -796.67954            0   -796.67954    14457.875 
     665 4.2393218e-07   -796.67954            0   -796.67954    14457.867 
     666 5.1707185e-07   -796.67954            0   -796.67954     14457.86 
     667 5.4331916e-07   -796.67954            0   -796.67954    14457.854 
     668 5.904224e-07   -796.67954            0   -796.67954     14457.85 
     669  7.18407e-07   -796.67954            0   -796.67954    14457.848 
     670 8.9258486e-07   -796.67953            0   -796.67953    14457.847 
     671 1.0907186e-06   -796.67953            0   -796.67953    14457.846 
     672 1.3087548e-06   -796.67953            0   -796.67953    14457.844 
     673 1.5460776e-06   -796.67953            0   -796.67953    14457.842 
     674 1.8024357e-06   -796.67953            0   -796.67953     14457.84 
     675 2.0775957e-06   -796.67952            0   -796.67952    14457.838 
     676 2.3713016e-06   -796.67952            0   -796.67952    14457.836 
     677  2.68328e-06   -796.67952            0   -796.67952    14457.834 
     678 3.0132389e-06   -796.67952            0   -796.67952    14457.831 
     679 3.3608684e-06   -796.67951            0   -796.67951    14457.829 
     680 3.725841e-06   -796.67951            0   -796.67951    14457.826 
     681 4.1078118e-06   -796.67951            0   -796.67951    14457.823 
     682 4.5064184e-06    -796.6795            0    -796.6795     14457.82 
     683 4.9212821e-06    -796.6795            0    -796.6795    14457.817 
     684 5.3520074e-06   -796.67949            0   -796.67949    14457.814 
     685 5.798183e-06   -796.67949            0   -796.67949     14457.81 
     686 6.2593809e-06   -796.67949            0   -796.67949    14457.807 
     687  6.73516e-06   -796.67948            0   -796.67948    14457.803 
     688 7.2250593e-06   -796.67948            0   -796.67948    14457.799 
     689 7.7286133e-06   -796.67947            0   -796.67947    14457.795 
     690 8.2453201e-06   -796.67947            0   -796.67947    14457.791 
     691 8.7747165e-06   -796.67946            0   -796.67946    14457.786 
     692 9.3161935e-06   -796.67946            0   -796.67946    14457.782 
     693 9.8694836e-06   -796.67945            0   -796.67945    14457.777 
     694 1.0433304e-05   -796.67945            0   -796.67945    14457.773 
     695 1.1009362e-05   -796.67944            0   -796.67944    14457.768 
     696 1.1590023e-05   -796.67943            0   -796.67943    14457.763 
     697 1.2199735e-05   -796.67943            0   -796.67943    14457.757 
     698 1.2769619e-05   -796.67942            0   -796.67942    14457.756 
     699 1.3769932e-05   -796.67941            0   -796.67941    14457.735 
     700 1.2647705e-05   -796.67941            0   -796.67941    14457.769 
     701 4.6135743e-07   -796.67941            0   -796.67941    14457.761 
     702 5.3878699e-07   -796.67941            0   -796.67941    14457.752 
     703 5.0067648e-07   -796.67941            0   -796.67941    14457.746 
     704 4.6149575e-07   -796.67941            0   -796.67941    14457.742 
     705 5.3624912e-07   -796.67941            0   -796.67941     14457.74 
     706 6.5941802e-07    -796.6794            0    -796.6794    14457.739 
     707 7.9952795e-07    -796.6794            0    -796.6794    14457.738 
     708 9.5303562e-07    -796.6794            0    -796.6794    14457.736 
     709 1.1195699e-06    -796.6794            0    -796.6794    14457.735 
     710 1.2989773e-06    -796.6794            0    -796.6794    14457.733 
     711 1.4910914e-06    -796.6794            0    -796.6794    14457.732 
     712 1.6957332e-06   -796.67939            0   -796.67939     14457.73 
     713 1.9127108e-06   -796.67939            0   -796.67939    14457.728 
     714 2.1418203e-06   -796.67939            0   -796.67939    14457.726 
     715 2.3828454e-06   -796.67938            0   -796.67938    14457.723 
     716 2.6355578e-06   -796.67938            0   -796.67938    14457.721 
     717 2.8997176e-06   -796.67938            0   -796.67938    14457.719 
     718 3.175073e-06   -796.67938            0   -796.67938    14457.716 
     719 3.461361e-06   -796.67937            0   -796.67937    14457.713 
     720 3.7583075e-06   -796.67937            0   -796.67937    14457.711 
     721 4.0656273e-06   -796.67937            0   -796.67937    14457.708 
     722 4.3830248e-06   -796.67936            0   -796.67936    14457.705 
     723 4.7101936e-06   -796.67936            0   -796.67936    14457.701 
     724 5.0468178e-06   -796.67935            0   -796.67935    14457.698 
     725 5.3925707e-06   -796.67935            0   -796.67935    14457.695 
     726 5.7471175e-06   -796.67934            0   -796.67934    14457.691 
     727 6.1101112e-06   -796.67934            0   -796.67934    14457.688 
     728 6.4812032e-06   -796.67934            0   -796.67934    14457.684 
     729 6.8600162e-06   -796.67933            0   -796.67933     14457.68 
     730 7.2462208e-06   -796.67933            0   -796.67933    14457.676 
     731 7.6393124e-06   -796.67932            0   -796.67932    14457.672 
     732 8.0393016e-06   -796.67931            0   -796.67931    14457.668 
     733 8.4444194e-06   -796.67931            0   -796.67931    14457.663 
     734 8.8586297e-06    -796.6793            0    -796.6793    14457.659 
     735 9.2583649e-06    -796.6793            0    -796.6793    14457.655 
     736 9.6255996e-06   -796.67929            0   -796.67929    14457.646 
     737 8.4488825e-06   -796.67929            0   -796.67929    14457.658 
     738 1.2364749e-06   -796.67929            0   -796.67929    14457.645 
     739 5.2903577e-07   -796.67928            0   -796.67928    14457.644 
     740 6.3027418e-07   -796.67928            0   -796.67928    14457.643 
     741 7.4078647e-07   -796.67928            0   -796.67928    14457.642 
     742 8.5981903e-07   -796.67928            0   -796.67928     14457.64 
     743 9.8732225e-07   -796.67928            0   -796.67928    14457.639 
     744 1.1231519e-06   -796.67928            0   -796.67928    14457.637 
     745 1.2671932e-06   -796.67927            0   -796.67927    14457.636 
     746 1.4193014e-06   -796.67927            0   -796.67927    14457.634 
     747 1.5793396e-06   -796.67927            0   -796.67927    14457.632 
     748 1.7471509e-06   -796.67927            0   -796.67927     14457.63 
     749 1.9225818e-06   -796.67926            0   -796.67926    14457.628 
     750 2.105455e-06   -796.67926            0   -796.67926    14457.626 
     751 2.2956081e-06   -796.67926            0   -796.67926    14457.624 
     752 2.4928389e-06   -796.67926            0   -796.67926    14457.622 
     753 2.6969893e-06   -796.67925            0   -796.67925    14457.619 
     754 2.9078051e-06   -796.67925            0   -796.67925    14457.617 
     755 3.1251906e-06   -796.67925            0   -796.67925    14457.614 
     756 3.3487074e-06   -796.67924            0   -796.67924    14457.611 
     757 3.5786124e-06   -796.67924            0   -796.67924    14457.608 
     758 3.8134189e-06   -796.67923            0   -796.67923    14457.606 
     759 4.0549853e-06   -796.67923            0   -796.67923    14457.602 
     760 4.2898074e-06   -796.67923            0   -796.67923      14457.6 
     761 4.490152e-06   -796.67922            0   -796.67922    14457.595 
     762 4.2067255e-06   -796.67922            0   -796.67922    14457.597 
     763 1.9961527e-06   -796.67922            0   -796.67922    14457.587 
     764 1.8998682e-07   -796.67922            0   -796.67922    14457.589 
     765 2.5381283e-07   -796.67921            0   -796.67921     14457.59 
     766 3.114876e-07   -796.67921            0   -796.67921    14457.589 
     767 3.7984476e-07   -796.67921            0   -796.67921    14457.589 
     768 4.5489123e-07   -796.67921            0   -796.67921    14457.588 
     769 5.3646508e-07   -796.67921            0   -796.67921    14457.587 
     770 6.2451038e-07   -796.67921            0   -796.67921    14457.585 
     771 7.1894171e-07   -796.67921            0   -796.67921    14457.584 
     772 8.1967167e-07    -796.6792            0    -796.6792    14457.583 
     773 9.2660486e-07    -796.6792            0    -796.6792    14457.582 
     774 1.0396405e-06    -796.6792            0    -796.6792     14457.58 
     775 1.1586711e-06    -796.6792            0    -796.6792    14457.579 
     776 1.2835836e-06    -796.6792            0    -796.6792    14457.577 
     777 1.4142583e-06   -796.67919            0   -796.67919    14457.575 
     778 1.5505705e-06   -796.67919            0   -796.67919    14457.573 
     779 1.6923887e-06   -796.67919            0   -796.67919    14457.571 
     780 1.8395771e-06   -796.67919            0   -796.67919    14457.569 
     781 1.9919925e-06   -796.67918            0   -796.67918    14457.567 
     782 2.1494896e-06   -796.67918            0   -796.67918    14457.565 
     783 2.3119113e-06   -796.67918            0   -796.67918    14457.563 
     784 2.4791088e-06   -796.67917            0   -796.67917    14457.561 
     785 2.6508996e-06   -796.67917            0   -796.67917    14457.558 
     786 2.8271623e-06   -796.67917            0   -796.67917    14457.556 
     787 3.0076075e-06   -796.67916            0   -796.67916    14457.553 
     788 3.192359e-06   -796.67916            0   -796.67916     14457.55 
     789 3.3803185e-06   -796.67916            0   -796.67916    14457.548 
     790 3.5732916e-06   -796.67915            0   -796.67915    14457.545 
     791 3.7577557e-06   -796.67915            0   -796.67915    14457.543 
     792  3.89786e-06   -796.67915            0   -796.67915    14457.537 
     793 3.3074514e-06   -796.67914            0   -796.67914    14457.541 
     794 7.1558816e-07   -796.67914            0   -796.67914    14457.534 
     795 1.7636788e-07   -796.67914            0   -796.67914    14457.535 
     796 2.1356017e-07   -796.67914            0   -796.67914    14457.534 
     797  2.61466e-07   -796.67914            0   -796.67914    14457.534 
     798 3.144326e-07   -796.67914            0   -796.67914    14457.533 
     799 3.7210365e-07   -796.67914            0   -796.67914    14457.532 
     800 4.3445416e-07   -796.67913            0   -796.67913    14457.531 
     801 5.0142194e-07   -796.67913            0   -796.67913     14457.53 
     802 5.7294533e-07   -796.67913            0   -796.67913    14457.529 
     803 6.489563e-07   -796.67913            0   -796.67913    14457.528 
     804 7.293832e-07   -796.67913            0   -796.67913    14457.526 
     805 8.1414931e-07   -796.67913            0   -796.67913    14457.525 
     806 9.0317402e-07   -796.67912            0   -796.67912    14457.524 
     807 9.963719e-07   -796.67912            0   -796.67912    14457.522 
     808 1.0936538e-06   -796.67912            0   -796.67912    14457.521 
     809 1.1949258e-06   -796.67912            0   -796.67912    14457.519 
     810 1.3000908e-06   -796.67912            0   -796.67912    14457.517 
     811 1.409046e-06   -796.67911            0   -796.67911    14457.516 
     812 1.5216878e-06   -796.67911            0   -796.67911    14457.514 
     813 1.6378997e-06   -796.67911            0   -796.67911    14457.512 
     814 1.7575779e-06   -796.67911            0   -796.67911     14457.51 
     815 1.8805911e-06    -796.6791            0    -796.6791    14457.508 
     816 2.0068537e-06    -796.6791            0    -796.6791    14457.506 
     817 2.1361554e-06    -796.6791            0    -796.6791    14457.504 
     818 2.2685646e-06   -796.67909            0   -796.67909    14457.501 
     819 2.4031867e-06   -796.67909            0   -796.67909    14457.499 
     820 2.5398863e-06   -796.67909            0   -796.67909    14457.497 
     821 2.6564982e-06   -796.67908            0   -796.67908    14457.495 
     822 2.589742e-06   -796.67908            0   -796.67908    14457.491 
     823 1.2699212e-06   -796.67908            0   -796.67908    14457.492 
     824 5.4467119e-08   -796.67908            0   -796.67908    14457.491 
     825 9.1795043e-08   -796.67908            0   -796.67908     14457.49 
     826 1.2659478e-07   -796.67908            0   -796.67908    14457.489 
     827 1.5843697e-07   -796.67908            0   -796.67908    14457.489 
     828 1.9377949e-07   -796.67907            0   -796.67907    14457.488 
     829 2.3267336e-07   -796.67907            0   -796.67907    14457.487 
     830 2.7501741e-07   -796.67907            0   -796.67907    14457.487 
     831 3.2076716e-07   -796.67907            0   -796.67907    14457.486 
     832 3.698806e-07   -796.67907            0   -796.67907    14457.485 
     833 4.2231126e-07   -796.67907            0   -796.67907    14457.484 
     834 4.7800974e-07   -796.67907            0   -796.67907    14457.483 
     835 5.3692309e-07   -796.67907            0   -796.67907    14457.482 
     836 5.9899532e-07   -796.67906            0   -796.67906    14457.481 
     837 6.6416707e-07   -796.67906            0   -796.67906     14457.48 
     838 7.3237599e-07   -796.67906            0   -796.67906    14457.478 
     839 8.0355648e-07   -796.67906            0   -796.67906    14457.477 
     840 8.7764015e-07   -796.67906            0   -796.67906    14457.476 
     841 9.5455526e-07   -796.67906            0   -796.67906    14457.474 
     842 1.0342278e-06   -796.67905            0   -796.67905    14457.473 
     843 1.1165799e-06   -796.67905            0   -796.67905    14457.471 
     844 1.201533e-06   -796.67905            0   -796.67905     14457.47 
     845 1.2890014e-06   -796.67905            0   -796.67905    14457.468 
     846 1.3789067e-06   -796.67904            0   -796.67904    14457.466 
     847 1.4711445e-06   -796.67904            0   -796.67904    14457.464 
     848 1.5656666e-06   -796.67904            0   -796.67904    14457.462 
     849 1.6622639e-06   -796.67904            0   -796.67904    14457.461 
     850 1.7611476e-06   -796.67903            0   -796.67903    14457.459 
     851 1.8610502e-06   -796.67903            0   -796.67903    14457.457 
     852 1.9629289e-06   -796.67903            0   -796.67903    14457.454 
     853 2.0331725e-06   -796.67902            0   -796.67902    14457.453 
     854 1.8474179e-06   -796.67902            0   -796.67902    14457.448 
     855 4.8472606e-07   -796.67902            0   -796.67902    14457.452 
     856 4.5918546e-08   -796.67902            0   -796.67902     14457.45 
     857 6.383518e-08   -796.67902            0   -796.67902    14457.449 
     858 8.2524046e-08   -796.67902            0   -796.67902    14457.449 
     859 1.0402006e-07   -796.67902            0   -796.67902    14457.448 
     860 1.2834659e-07   -796.67902            0   -796.67902    14457.448 
     861 1.5523566e-07   -796.67902            0   -796.67902    14457.447 
     862 1.8461281e-07   -796.67902            0   -796.67902    14457.447 
     863 2.1644571e-07   -796.67901            0   -796.67901    14457.446 
     864 2.5070508e-07   -796.67901            0   -796.67901    14457.445 
     865 2.8735862e-07   -796.67901            0   -796.67901    14457.444 
     866 3.2637179e-07   -796.67901            0   -796.67901    14457.444 
     867 3.6770757e-07   -796.67901            0   -796.67901    14457.443 
     868 4.1132666e-07   -796.67901            0   -796.67901    14457.442 
     869 4.5718743e-07   -796.67901            0   -796.67901    14457.441 
     870 5.0524598e-07   -796.67901            0   -796.67901     14457.44 
     871 5.5545616e-07     -796.679            0     -796.679    14457.439 
     872 6.0776969e-07     -796.679            0     -796.679    14457.438 
     873 6.6213605e-07     -796.679            0     -796.679    14457.436 
     874 7.1850277e-07     -796.679            0     -796.679    14457.435 
     875 7.768151e-07     -796.679            0     -796.679    14457.434 
     876 8.3701673e-07   -796.67899            0   -796.67899    14457.432 
     877 8.9904854e-07   -796.67899            0   -796.67899    14457.431 
     878 9.6285131e-07   -796.67899            0   -796.67899     14457.43 
     879 1.0283601e-06   -796.67899            0   -796.67899    14457.428 
     880 1.0955171e-06   -796.67899            0   -796.67899    14457.427 
     881 1.1642397e-06   -796.67898            0   -796.67898    14457.425 
     882 1.2344947e-06   -796.67898            0   -796.67898    14457.423 
     883 1.3060278e-06   -796.67898            0   -796.67898    14457.422 
     884 1.3783411e-06   -796.67898            0   -796.67898     14457.42 
     885 1.4418916e-06   -796.67897            0   -796.67897    14457.418 
     886 1.3997566e-06   -796.67897            0   -796.67897    14457.416 
     887 6.298058e-07   -796.67897            0   -796.67897    14457.416 
     888 1.5017603e-08   -796.67897            0   -796.67897    14457.415 
     889 2.7409528e-08   -796.67897            0   -796.67897    14457.415 
     890 4.4658519e-08   -796.67897            0   -796.67897    14457.415 
     891 6.0598351e-08   -796.67897            0   -796.67897    14457.414 
     892 7.6613332e-08   -796.67897            0   -796.67897    14457.414 
     893 9.4330698e-08   -796.67897            0   -796.67897    14457.413 
     894 1.1385545e-07   -796.67897            0   -796.67897    14457.413 
     895 1.3516342e-07   -796.67897            0   -796.67897    14457.412 
     896 1.5823322e-07   -796.67896            0   -796.67896    14457.412 
     897 1.8304345e-07   -796.67896            0   -796.67896    14457.411 
     898 2.0957072e-07   -796.67896            0   -796.67896    14457.411 
     899   2.3779e-07   -796.67896            0   -796.67896     14457.41 
     900 2.6767449e-07   -796.67896            0   -796.67896    14457.409 
     901 2.9919577e-07   -796.67896            0   -796.67896    14457.408 
     902 3.3232372e-07   -796.67896            0   -796.67896    14457.408 
     903 3.6702661e-07   -796.67896            0   -796.67896    14457.407 
     904 4.0327112e-07   -796.67896            0   -796.67896    14457.406 
     905 4.4102234e-07   -796.67895            0   -796.67895    14457.405 
     906 4.8024384e-07   -796.67895            0   -796.67895    14457.404 
     907 5.2089771e-07   -796.67895            0   -796.67895    14457.403 
     908 5.6294455e-07   -796.67895            0   -796.67895    14457.402 
     909 6.0634353e-07   -796.67895            0   -796.67895      14457.4 
     910 6.5105252e-07   -796.67895            0   -796.67895    14457.399 
     911 6.9702765e-07   -796.67894            0   -796.67894    14457.398 
     912 7.4422512e-07   -796.67894            0   -796.67894    14457.397 
     913 7.9259495e-07   -796.67894            0   -796.67894    14457.395 
     914 8.4210034e-07   -796.67894            0   -796.67894    14457.394 
     915 8.9263607e-07   -796.67894            0   -796.67894    14457.393 
     916 9.4415644e-07   -796.67893            0   -796.67893    14457.391 
     917 9.9452068e-07   -796.67893            0   -796.67893     14457.39 
     918 1.0278125e-06   -796.67893            0   -796.67893    14457.388 
     919 8.5117237e-07   -796.67893            0   -796.67893    14457.388 
     920 1.3764691e-07   -796.67893            0   -796.67893    14457.386 
     921 3.1385555e-08   -796.67893            0   -796.67893    14457.386 
     922 4.4116618e-08   -796.67893            0   -796.67893    14457.386 
     923 5.5935367e-08   -796.67892            0   -796.67892    14457.386 
     924 6.8840566e-08   -796.67892            0   -796.67892    14457.385 
     925 8.3038944e-08   -796.67892            0   -796.67892    14457.385 
     926 9.8529397e-08   -796.67892            0   -796.67892    14457.384 
     927 1.1529652e-07   -796.67892            0   -796.67892    14457.384 
     928 1.3332475e-07   -796.67892            0   -796.67892    14457.383 
     929 1.5259709e-07   -796.67892            0   -796.67892    14457.383 
     930 1.7309534e-07   -796.67892            0   -796.67892    14457.382 
     931 1.9480005e-07   -796.67892            0   -796.67892    14457.382 
     932 2.1769055e-07   -796.67892            0   -796.67892    14457.381 
     933 2.4174499e-07   -796.67892            0   -796.67892     14457.38 
     934 2.6694031e-07   -796.67892            0   -796.67892     14457.38 
     935 2.9325233e-07   -796.67891            0   -796.67891    14457.379 
     936 3.2065571e-07   -796.67891            0   -796.67891    14457.378 
     937 3.4912402e-07   -796.67891            0   -796.67891    14457.377 
     938 3.7862973e-07   -796.67891            0   -796.67891    14457.376 
     939 4.0914427e-07   -796.67891            0   -796.67891    14457.375 
     940 4.4063799e-07   -796.67891            0   -796.67891    14457.374 
     941 4.7308043e-07   -796.67891            0   -796.67891    14457.373 
     942 5.064395e-07    -796.6789            0    -796.6789    14457.372 
     943 5.4068416e-07    -796.6789            0    -796.6789    14457.371 
     944 5.7577565e-07    -796.6789            0    -796.6789     14457.37 
     945 6.1169275e-07    -796.6789            0    -796.6789    14457.369 
     946 6.4831686e-07    -796.6789            0    -796.6789    14457.368 
     947 6.8552476e-07    -796.6789            0    -796.6789    14457.366 
     948 7.1949543e-07   -796.67889            0   -796.67889    14457.365 
     949 7.1772116e-07   -796.67889            0   -796.67889    14457.364 
     950 4.1069307e-07   -796.67889            0   -796.67889    14457.364 
     951 1.7239538e-08   -796.67889            0   -796.67889    14457.363 
     952 3.137276e-08   -796.67889            0   -796.67889    14457.363 
     953 4.1369046e-08   -796.67889            0   -796.67889    14457.362 
     954 5.0818642e-08   -796.67889            0   -796.67889    14457.362 
     955 6.1258432e-08   -796.67889            0   -796.67889    14457.362 
     956 7.2640257e-08   -796.67889            0   -796.67889    14457.361 
     957 8.4957103e-08   -796.67889            0   -796.67889    14457.361 
     958 9.8196725e-08   -796.67889            0   -796.67889     14457.36 
     959 1.1234694e-07   -796.67889            0   -796.67889     14457.36 
     960 1.2739422e-07   -796.67888            0   -796.67888    14457.359 
     961 1.4332441e-07   -796.67888            0   -796.67888    14457.359 
     962 1.6012224e-07   -796.67888            0   -796.67888    14457.358 
     963 1.7777178e-07   -796.67888            0   -796.67888    14457.358 
     964 1.9625601e-07   -796.67888            0   -796.67888    14457.357 
     965 2.1555733e-07   -796.67888            0   -796.67888    14457.356 
     966 2.3565696e-07   -796.67888            0   -796.67888    14457.356 
     967 2.5653586e-07   -796.67888            0   -796.67888    14457.355 
     968 2.7817326e-07   -796.67888            0   -796.67888    14457.354 
     969 3.0054936e-07   -796.67888            0   -796.67888    14457.353 
     970 3.236401e-07   -796.67887            0   -796.67887    14457.353 
     971 3.4742821e-07   -796.67887            0   -796.67887    14457.352 
     972 3.7187838e-07   -796.67887            0   -796.67887    14457.351 
     973 3.969967e-07   -796.67887            0   -796.67887     14457.35 
     974 4.2267565e-07   -796.67887            0   -796.67887    14457.349 
     975 4.4909227e-07   -796.67887            0   -796.67887    14457.348 
     976 4.7534364e-07   -796.67887            0   -796.67887    14457.347 
     977 5.0133284e-07   -796.67886            0   -796.67886    14457.346 
     978 4.9784689e-07   -796.67886            0   -796.67886    14457.346 
     979 3.1766403e-07   -796.67886            0   -796.67886    14457.342 
     980 1.9206817e-08   -796.67886            0   -796.67886    14457.343 
     981 2.4044541e-08   -796.67886            0   -796.67886    14457.344 
     982 2.8358674e-08   -796.67886            0   -796.67886    14457.344 
     983 3.4998829e-08   -796.67886            0   -796.67886    14457.343 
     984 4.2505682e-08   -796.67886            0   -796.67886    14457.343 
     985 5.0712972e-08   -796.67886            0   -796.67886    14457.343 
     986 5.9621008e-08   -796.67886            0   -796.67886    14457.342 
     987 6.922041e-08   -796.67886            0   -796.67886    14457.342 
     988 7.9502497e-08   -796.67886            0   -796.67886    14457.342 
     989 9.0457415e-08   -796.67886            0   -796.67886    14457.341 
     990 1.020749e-07   -796.67886            0   -796.67886    14457.341 
     991 1.1434382e-07   -796.67885            0   -796.67885     14457.34 
     992 1.2725258e-07   -796.67885            0   -796.67885     14457.34 
     993 1.4078874e-07   -796.67885            0   -796.67885    14457.339 
     994 1.5493945e-07   -796.67885            0   -796.67885    14457.339 
     995 1.6969095e-07   -796.67885            0   -796.67885    14457.338 
     996 1.8502928e-07   -796.67885            0   -796.67885    14457.338 
     997 2.0093925e-07   -796.67885            0   -796.67885    14457.337 
     998 2.1740622e-07   -796.67885            0   -796.67885    14457.336 
     999 2.3441278e-07   -796.67885            0   -796.67885    14457.335 
    1000 2.5194554e-07   -796.67885            0   -796.67885    14457.335 
    1001 2.6998035e-07   -796.67884            0   -796.67884    14457.334 
    1002 2.8851609e-07   -796.67884            0   -796.67884    14457.333 
    1003 3.0748741e-07   -796.67884            0   -796.67884    14457.332 
    1004 3.2696169e-07   -796.67884            0   -796.67884    14457.332 
    1005 3.4629767e-07   -796.67884            0   -796.67884    14457.331 
    1006 3.6366487e-07   -796.67884            0   -796.67884     14457.33 
    1007 3.4791956e-07   -796.67884            0   -796.67884     14457.33 
    1008 1.6266802e-07   -796.67884            0   -796.67884    14457.328 
    1009 7.8475138e-09   -796.67884            0   -796.67884    14457.328 
    1010 1.2638878e-08   -796.67884            0   -796.67884    14457.328 
    1011 1.7405783e-08   -796.67883            0   -796.67883    14457.328 
    1012 2.208262e-08   -796.67883            0   -796.67883    14457.328 
    1013 2.7282234e-08   -796.67883            0   -796.67883    14457.328 
[...]
    2383 1.2920782e-07   -796.73532            0   -796.73532    14476.623 
    2384 1.4135099e-07   -796.73532            0   -796.73532    14476.623 
    2385 1.5391322e-07   -796.73532            0   -796.73532    14476.623 
    2386 1.6687228e-07   -796.73532            0   -796.73532    14476.622 
    2387 1.8020668e-07   -796.73532            0   -796.73532    14476.622 
    2388 1.9389209e-07   -796.73532            0   -796.73532    14476.622 
    2389 2.0790744e-07   -796.73532            0   -796.73532    14476.621 
    2390 2.2222404e-07   -796.73532            0   -796.73532    14476.621 
    2391 2.3682717e-07   -796.73532            0   -796.73532    14476.621 
    2392 2.5167127e-07   -796.73532            0   -796.73532     14476.62 
    2393 2.6678689e-07   -796.73532            0   -796.73532     14476.62 
    2394 2.8205622e-07   -796.73532            0   -796.73532     14476.62 
    2395 2.980892e-07   -796.73532            0   -796.73532    14476.619 
    2396 3.1636789e-07   -796.73532            0   -796.73532     14476.62 
    2397 3.5986977e-07   -796.73532            0   -796.73532    14476.616 
    2398 4.295318e-07   -796.73532            0   -796.73532    14476.623 
    2399 7.9316019e-08   -796.73532            0   -796.73532    14476.619 
    2400 2.8112243e-08   -796.73532            0   -796.73532    14476.618 
    2401 2.4141799e-08   -796.73532            0   -796.73532    14476.618 
    2402 2.8504382e-08   -796.73532            0   -796.73532    14476.618 
    2403 3.3215773e-08   -796.73532            0   -796.73532    14476.618 
    2404 3.8258398e-08   -796.73532            0   -796.73532    14476.617 
    2405 4.3624522e-08   -796.73532            0   -796.73532    14476.617 
    2406 4.9305095e-08   -796.73532            0   -796.73532    14476.617 
    2407 5.5290805e-08   -796.73532            0   -796.73532    14476.617 
    2408 6.1571687e-08   -796.73532            0   -796.73532    14476.617 
    2409 6.8137365e-08   -796.73532            0   -796.73532    14476.617 
    2410 7.4976912e-08   -796.73532            0   -796.73532    14476.616 
    2411 8.2079017e-08   -796.73532            0   -796.73532    14476.616 
    2412 8.9431857e-08   -796.73532            0   -796.73532    14476.616 
    2413 9.7023296e-08   -796.73532            0   -796.73532    14476.616 
    2414 1.0484068e-07   -796.73532            0   -796.73532    14476.616 
    2415 1.128712e-07   -796.73532            0   -796.73532    14476.615 
    2416 1.2110139e-07   -796.73532            0   -796.73532    14476.615 
    2417 1.2951805e-07   -796.73532            0   -796.73532    14476.615 
    2418 1.3810654e-07   -796.73532            0   -796.73532    14476.615 
    2419 1.4685449e-07   -796.73532            0   -796.73532    14476.614 
    2420 1.5574361e-07   -796.73532            0   -796.73532    14476.614 
    2421 1.6476948e-07   -796.73532            0   -796.73532    14476.614 
    2422 1.7389269e-07   -796.73532            0   -796.73532    14476.614 
    2423 1.8318443e-07   -796.73532            0   -796.73532    14476.613 
    2424 1.9253051e-07   -796.73532            0   -796.73532    14476.613 
    2425 2.0384259e-07   -796.73532            0   -796.73532    14476.612 
    2426 2.2754359e-07   -796.73532            0   -796.73532    14476.614 
    2427 2.9205197e-07   -796.73532            0   -796.73532    14476.608 
    2428 3.5070254e-08   -796.73532            0   -796.73532     14476.61 
    2429 1.9264949e-08   -796.73532            0   -796.73532    14476.612 
    2430 1.1079441e-08   -796.73532            0   -796.73532    14476.612 
    2431 1.2802255e-08   -796.73532            0   -796.73532    14476.612 
    2432 1.5166502e-08   -796.73532            0   -796.73532    14476.612 
    2433 1.7718042e-08   -796.73532            0   -796.73532    14476.612 
    2434 2.0453491e-08   -796.73532            0   -796.73532    14476.612 
    2435 2.3368329e-08   -796.73532            0   -796.73532    14476.611 
    2436 2.6457988e-08   -796.73532            0   -796.73532    14476.611 
    2437 2.9717538e-08   -796.73532            0   -796.73532    14476.611 
    2438 3.3141806e-08   -796.73532            0   -796.73532    14476.611 
    2439 3.672533e-08   -796.73532            0   -796.73532    14476.611 
    2440 4.0462405e-08   -796.73532            0   -796.73532    14476.611 
    2441 4.4347064e-08   -796.73532            0   -796.73532    14476.611 
    2442 4.8373122e-08   -796.73532            0   -796.73532    14476.611 
    2443 5.253415e-08   -796.73532            0   -796.73532     14476.61 
    2444 5.6823534e-08   -796.73532            0   -796.73532     14476.61 
    2445 6.1234424e-08   -796.73532            0   -796.73532     14476.61 
    2446 6.5759845e-08   -796.73532            0   -796.73532     14476.61 
    2447 7.0392546e-08   -796.73532            0   -796.73532     14476.61 
    2448 7.5125319e-08   -796.73532            0   -796.73532     14476.61 
    2449 7.9950393e-08   -796.73532            0   -796.73532    14476.609 
    2450 8.4860812e-08   -796.73532            0   -796.73532    14476.609 
    2451 8.9847255e-08   -796.73532            0   -796.73532    14476.609 
    2452 9.4906084e-08   -796.73532            0   -796.73532    14476.609 
    2453 1.0001831e-07   -796.73532            0   -796.73532    14476.609 
    2454 1.0521229e-07   -796.73532            0   -796.73532    14476.608 
    2455 1.1040843e-07   -796.73532            0   -796.73532    14476.608 
    2456 1.1628356e-07   -796.73532            0   -796.73532    14476.608 
    2457 1.2579435e-07   -796.73532            0   -796.73532    14476.609 
    2458 1.6755346e-07   -796.73532            0   -796.73532    14476.605 
    2459 4.9595278e-08   -796.73532            0   -796.73532    14476.607 
    2460 7.7200405e-09   -796.73532            0   -796.73532    14476.607 
    2461 8.9826381e-09   -796.73532            0   -796.73532    14476.607 
    2462  1.04239e-08   -796.73532            0   -796.73532    14476.607 
    2463 1.196876e-08   -796.73532            0   -796.73532    14476.607 
    2464 1.3609936e-08   -796.73532            0   -796.73532    14476.607 
    2465 1.5346098e-08   -796.73532            0   -796.73532    14476.607 
    2466 1.7173952e-08   -796.73532            0   -796.73532    14476.607 
    2467 1.9091081e-08   -796.73532            0   -796.73532    14476.607 
    2468 2.1094223e-08   -796.73532            0   -796.73532    14476.607 
    2469 2.3180573e-08   -796.73532            0   -796.73532    14476.607 
    2470 2.5346613e-08   -796.73532            0   -796.73532    14476.606 
    2471 2.7589359e-08   -796.73532            0   -796.73532    14476.606 
    2472 2.990488e-08   -796.73532            0   -796.73532    14476.606 
    2473 3.2290296e-08   -796.73532            0   -796.73532    14476.606 
    2474 3.4740829e-08   -796.73532            0   -796.73532    14476.606 
    2475 3.725464e-08   -796.73532            0   -796.73532    14476.606 
    2476 3.9824235e-08   -796.73532            0   -796.73532    14476.606 
    2477 4.245318e-08   -796.73532            0   -796.73532    14476.606 
    2478 4.512174e-08   -796.73532            0   -796.73532    14476.606 
    2479 4.7866999e-08   -796.73532            0   -796.73532    14476.605 
    2480 5.0613795e-08   -796.73532            0   -796.73532    14476.605 
    2481 5.3791011e-08   -796.73532            0   -796.73532    14476.605 
    2482 5.8184803e-08   -796.73532            0   -796.73532    14476.606 
    2483 7.2748464e-08   -796.73532            0   -796.73532    14476.603 
    2484 4.7791906e-08   -796.73532            0   -796.73532    14476.606 
    2485 6.9416854e-09   -796.73532            0   -796.73532    14476.605 
    2486 3.8070948e-09   -796.73532            0   -796.73532    14476.605 
    2487 4.3945674e-09   -796.73532            0   -796.73532    14476.605 
    2488 5.191024e-09   -796.73532            0   -796.73532    14476.605 
    2489 6.0504329e-09   -796.73532            0   -796.73532    14476.604 
    2490 6.9708966e-09   -796.73532            0   -796.73532    14476.604 
    2491 7.9511091e-09   -796.73532            0   -796.73532    14476.604 
    2492 8.9895825e-09   -796.73532            0   -796.73532    14476.604 
    2493 1.0084767e-08   -796.73532            0   -796.73532    14476.604 
    2494 1.1235011e-08   -796.73532            0   -796.73532    14476.604 
    2495 1.2438585e-08   -796.73532            0   -796.73532    14476.604 
    2496 1.3693673e-08   -796.73532            0   -796.73532    14476.604 
    2497 1.4998382e-08   -796.73532            0   -796.73532    14476.604 
    2498 1.6350741e-08   -796.73532            0   -796.73532    14476.604 
    2499 1.7748711e-08   -796.73532            0   -796.73532    14476.604 
    2500 1.9190176e-08   -796.73532            0   -796.73532    14476.604 
    2501 2.0672971e-08   -796.73532            0   -796.73532    14476.604 
    2502 2.2194842e-08   -796.73532            0   -796.73532    14476.604 
    2503 2.3753529e-08   -796.73532            0   -796.73532    14476.603 
    2504 2.5346619e-08   -796.73532            0   -796.73532    14476.603 
    2505 2.6971859e-08   -796.73532            0   -796.73532    14476.603 
    2506 2.8626487e-08   -796.73532            0   -796.73532    14476.603 
    2507 3.0308819e-08   -796.73532            0   -796.73532    14476.603 
    2508 3.2014288e-08   -796.73532            0   -796.73532    14476.603 
    2509 3.3746216e-08   -796.73532            0   -796.73532    14476.603 
    2510 3.5486591e-08   -796.73532            0   -796.73532    14476.603 
    2511 3.7298499e-08   -796.73532            0   -796.73532    14476.602 
    2512 3.9164878e-08   -796.73532            0   -796.73532    14476.603 
    2513 4.3460532e-08   -796.73532            0   -796.73532    14476.602 
    2514 5.7031094e-08   -796.73532            0   -796.73532    14476.604 
    2515 1.082412e-08   -796.73532            0   -796.73532    14476.603 
    2516 3.6165436e-09   -796.73532            0   -796.73532    14476.602 
    2517 2.5723773e-09   -796.73532            0   -796.73532    14476.602 
    2518 3.0233746e-09   -796.73532            0   -796.73532    14476.602 
    2519 3.5079954e-09   -796.73532            0   -796.73532    14476.602 
    2520 4.0261413e-09   -796.73532            0   -796.73532    14476.602 
    2521 4.5768479e-09   -796.73532            0   -796.73532    14476.602 
    2522 5.1593778e-09   -796.73532            0   -796.73532    14476.602 
    2523 5.7728382e-09   -796.73532            0   -796.73532    14476.602 
    2524 6.4163477e-09   -796.73532            0   -796.73532    14476.602 
    2525 7.0889382e-09   -796.73532            0   -796.73532    14476.602 
    2526 7.7896319e-09   -796.73532            0   -796.73532    14476.602 
    2527 8.5173743e-09   -796.73532            0   -796.73532    14476.602 
    2528 9.2711089e-09   -796.73532            0   -796.73532    14476.602 
    2529 1.0049691e-08   -796.73532            0   -796.73532    14476.601 
    2530 1.0852009e-08   -796.73532            0   -796.73532    14476.601 
    2531 1.1676807e-08   -796.73532            0   -796.73532    14476.601 
    2532 1.252298e-08   -796.73532            0   -796.73532    14476.601 
    2533 1.3389058e-08   -796.73532            0   -796.73532    14476.601 
    2534 1.4274204e-08   -796.73532            0   -796.73532    14476.601 
    2535 1.5176142e-08   -796.73532            0   -796.73532    14476.601 
    2536 1.6095837e-08   -796.73532            0   -796.73532    14476.601 
    2537 1.7026417e-08   -796.73532            0   -796.73532    14476.601 
    2538 1.7982795e-08   -796.73532            0   -796.73532    14476.601 
    2539 1.8932062e-08   -796.73532            0   -796.73532    14476.601 
    2540 2.0102985e-08   -796.73532            0   -796.73532      14476.6 
    2541 2.2106253e-08   -796.73532            0   -796.73532    14476.601 
    2542 2.8865404e-08   -796.73532            0   -796.73532    14476.599 
    2543 6.4379821e-09   -796.73532            0   -796.73532      14476.6 
    2544 1.6652191e-09   -796.73532            0   -796.73532      14476.6 
    2545 1.6200909e-09   -796.73532            0   -796.73532      14476.6 
    2546 1.8904269e-09   -796.73532            0   -796.73532      14476.6 
    2547 2.1834966e-09   -796.73532            0   -796.73532      14476.6 
    2548 2.4956954e-09   -796.73532            0   -796.73532      14476.6 
    2549 2.8270243e-09   -796.73532            0   -796.73532      14476.6 
    2550 3.1767944e-09   -796.73532            0   -796.73532      14476.6 
    2551 3.5446129e-09   -796.73532            0   -796.73532      14476.6 
    2552 3.929862e-09   -796.73532            0   -796.73532      14476.6 
    2553 4.3320485e-09   -796.73532            0   -796.73532      14476.6 
    2554 4.7505169e-09   -796.73532            0   -796.73532      14476.6 
    2555 5.1847308e-09   -796.73532            0   -796.73532      14476.6 
    2556 5.6339597e-09   -796.73532            0   -796.73532      14476.6 
    2557 6.0976774e-09   -796.73532            0   -796.73532      14476.6 
    2558 6.5750032e-09   -796.73532            0   -796.73532      14476.6 
    2559 7.0655732e-09   -796.73532            0   -796.73532      14476.6 
    2560 7.5680627e-09   -796.73532            0   -796.73532      14476.6 
    2561 8.0829274e-09   -796.73532            0   -796.73532      14476.6 
    2562 8.6069464e-09   -796.73532            0   -796.73532      14476.6 
    2563 9.1451431e-09   -796.73532            0   -796.73532      14476.6 
    2564 9.684388e-09   -796.73532            0   -796.73532      14476.6 
    2565 1.0267231e-08   -796.73532            0   -796.73532    14476.599 
    2566 1.0870484e-08   -796.73532            0   -796.73532      14476.6 
    2567 1.2314385e-08   -796.73532            0   -796.73532    14476.599 
    2568 1.4888227e-08   -796.73532            0   -796.73532      14476.6 
    2569 4.3804234e-09   -796.73532            0   -796.73532    14476.599 
    2570 9.1889098e-10   -796.73532            0   -796.73532    14476.599 
    2571 1.0650029e-09   -796.73532            0   -796.73532    14476.599 
    2572 1.2394771e-09   -796.73532            0   -796.73532    14476.599 
    2573 1.4259189e-09   -796.73532            0   -796.73532    14476.599 
    2574 1.6245102e-09   -796.73532            0   -796.73532    14476.599 
    2575 1.8347717e-09   -796.73532            0   -796.73532    14476.599 
    2576 2.0564888e-09   -796.73532            0   -796.73532    14476.599 
    2577 2.2892864e-09   -796.73532            0   -796.73532    14476.599 
    2578 2.5328692e-09   -796.73532            0   -796.73532    14476.599 
    2579 2.7868467e-09   -796.73532            0   -796.73532    14476.599 
    2580 3.0508886e-09   -796.73532            0   -796.73532    14476.599 
    2581 3.3245663e-09   -796.73532            0   -796.73532    14476.599 
    2582  3.60754e-09   -796.73532            0   -796.73532    14476.599 
    2583 3.8993136e-09   -796.73532            0   -796.73532    14476.599 
    2584 4.1995954e-09   -796.73532            0   -796.73532    14476.599 
    2585 4.5077187e-09   -796.73532            0   -796.73532    14476.599 
    2586 4.8236631e-09   -796.73532            0   -796.73532    14476.599 
    2587 5.1461122e-09   -796.73532            0   -796.73532    14476.599 
    2588 5.4764766e-09   -796.73532            0   -796.73532    14476.599 
    2589 5.8101381e-09   -796.73532            0   -796.73532    14476.599 
    2590 6.1582356e-09   -796.73532            0   -796.73532    14476.599 
    2591 6.5008895e-09   -796.73532            0   -796.73532    14476.599 
    2592 6.9836019e-09   -796.73532            0   -796.73532    14476.598 
    2593 7.9116124e-09   -796.73532            0   -796.73532    14476.599 
    2594 9.2178924e-09   -796.73532            0   -796.73532    14476.598 
    2595 1.3968824e-09   -796.73532            0   -796.73532    14476.598 
    2596 5.9276373e-10   -796.73532            0   -796.73532    14476.598 
    2597 4.8675603e-10   -796.73532            0   -796.73532    14476.598 
    2598 5.7870671e-10   -796.73532            0   -796.73532    14476.598 
    2599 6.7973059e-10   -796.73532            0   -796.73532    14476.598 
    2600 7.8841124e-10   -796.73532            0   -796.73532    14476.598 
    2601 9.0456097e-10   -796.73532            0   -796.73532    14476.598 
    2602 1.0280209e-09   -796.73532            0   -796.73532    14476.598 
    2603 1.1586119e-09   -796.73532            0   -796.73532    14476.598 
    2604 1.2961477e-09   -796.73532            0   -796.73532    14476.598 
    2605 1.4404297e-09   -796.73532            0   -796.73532    14476.598 
    2606 1.5912504e-09   -796.73532            0   -796.73532    14476.598 
    2607 1.7483915e-09   -796.73532            0   -796.73532    14476.598 
    2608 1.9116262e-09   -796.73532            0   -796.73532    14476.598 
    2609 2.0807173e-09   -796.73532            0   -796.73532    14476.598 
    2610 2.2554208e-09   -796.73532            0   -796.73532    14476.598 
    2611 2.4354815e-09   -796.73532            0   -796.73532    14476.598 
    2612 2.6206406e-09   -796.73532            0   -796.73532    14476.598 
    2613 2.8106246e-09   -796.73532            0   -796.73532    14476.598 
    2614 3.005166e-09   -796.73532            0   -796.73532    14476.598 
    2615 3.2039648e-09   -796.73532            0   -796.73532    14476.598 
    2616 3.4067706e-09   -796.73532            0   -796.73532    14476.598 
    2617 3.6131978e-09   -796.73532            0   -796.73532    14476.598 
    2618 3.8231779e-09   -796.73532            0   -796.73532    14476.598 
    2619 4.0357941e-09   -796.73532            0   -796.73532    14476.598 
    2620 4.2525564e-09   -796.73532            0   -796.73532    14476.598 
    2621 4.468412e-09   -796.73532            0   -796.73532    14476.598 
    2622 4.7061062e-09   -796.73532            0   -796.73532    14476.598 
    2623 4.9813695e-09   -796.73532            0   -796.73532    14476.598 
    2624 6.1499323e-09   -796.73532            0   -796.73532    14476.597 
    2625 4.7342692e-09   -796.73532            0   -796.73532    14476.598 
    2626 2.3485564e-10   -796.73532            0   -796.73532    14476.598 
Loop time of 580.077 on 24 procs for 891 steps with 127 atoms

98.2% CPU use with 24 MPI tasks x no OpenMP threads

Minimization stats:
  Stopping criterion = energy tolerance
  Energy initial, next-to-last, final = 
        -796.678667492     -796.735316892     -796.735316888
  Force two-norm initial, final = 2.94621e-06 9.6015e-06
  Force max component initial, final = 2.20673e-06 2.71675e-06
  Final line search alpha, max atom move = 0 0
  Iterations, force evaluations = 891 891

MPI task timing breakdown:
Section |  min time  |  avg time  |  max time  |%varavg| %total
---------------------------------------------------------------
Pair    | 216.28     | 384.51     | 520.9      | 464.0 | 66.29
Neigh   | 0          | 0          | 0          |   0.0 |  0.00
Comm    | 0.17665    | 136.56     | 304.78     | 778.6 | 23.54
Output  | 0.15326    | 0.15348    | 0.15409    |   0.0 |  0.03
Modify  | 57.204     | 57.207     | 57.209     |   0.0 |  9.86
Other   |            | 1.647      |            |       |  0.28

Nlocal:    5.29167 ave 7 max 3 min
Histogram: 4 0 0 0 0 9 0 7 0 4
Nghost:    761.875 ave 803 max 714 min
Histogram: 5 3 0 0 0 5 3 0 3 5
Neighs:    0 ave 0 max 0 min
Histogram: 24 0 0 0 0 0 0 0 0 0
FullNghs:  1068.08 ave 1407 max 613 min
Histogram: 4 0 0 0 5 4 0 7 0 4

Total # of neighbors = 25634
Ave neighs/atom = 201.843
Neighbor list builds = 0
Dangerous builds = 0
Total wall time: 0:28:56
