LAMMPS (12 Dec 2018)
Running on 8 partitions of processors
Step MaxReplicaForce MaxAtomForce GradV0 GradV1 GradVc EBF EBR RDT RD1 PE1 RD2 PE2 ... RDN PEN
0    12.850202    8.4007507   0.17756064      4.66371    12.885925    2.2922678    1.7510432    2.9539708            0   -796.99042   0.14285714   -796.67577   0.28571429   -795.79562   0.42857143   -794.83647   0.57142857   -794.69816   0.71428571   -795.43176   0.85714286   -796.18639            1    -796.4492 
1    12.850202    8.4007507   0.17756064      4.66371    12.885925    2.2922678    1.7510432    2.9539708            0   -796.99042   0.14285714   -796.67577   0.28571429   -795.79562   0.42857143   -794.83647   0.57142857   -794.69816   0.71428571   -795.43176   0.85714286   -796.18639            1    -796.4492 
2    11.796167     7.763594   0.17475895    4.4404924    11.828589    2.1475638    1.6255535    2.9540196            0   -796.99043   0.14285587   -796.68056   0.28571874   -795.84031   0.42858436   -794.97238   0.57144135   -794.84287   0.71430613   -795.49389    0.8571688   -796.20981            1   -796.46842 
3    9.9228278    6.6282513   0.16979756    3.9981083    9.9496567    1.8964308    1.4108573    2.9548259            0   -796.99045   0.14281626   -796.69016   0.28567103   -795.92498   0.42862391   -795.20798   0.57146587   -795.09402    0.7144045   -795.61085   0.85726131   -796.25467            1   -796.50488 
4    7.6987537    5.2662155   0.16418729     3.371515    7.7195942    1.6073022    1.1702524    2.9575246            0    -796.9905   0.14266997   -796.70448   0.28546849   -796.03778   0.42871139   -795.47926   0.57150862   -795.38319   0.71468343    -795.7647   0.85749539    -796.3157            1   -796.55345 
5    5.5927828    3.9427511    0.1597473    2.6576801    5.6088163    1.3413603   0.95709163    2.9631621            0   -796.99059   0.14234238   -796.72311   0.28503873   -796.16114   0.42886595   -795.72914   0.57158737   -795.64923   0.71521478   -795.92866   0.85795328   -796.38416            1   -796.60632 
6    3.8932711    2.8123642   0.15707462    2.0337556    3.9059239    1.1303048   0.79588127    2.9723861            0   -796.99079   0.14177745   -796.74519   0.28439559   -796.27642   0.42909583    -795.9287   0.57171621   -795.86048   0.71598116    -796.0761   0.85868933   -796.45113            1   -796.65636 
7     2.713716     1.923826   0.15479734    1.6273016    2.7239647   0.97456358   0.68603966    2.9853302            0   -796.99116   0.14097575   -796.76911   0.28363545   -796.37182   0.42938735    -796.0767   0.57188485   -796.01659   0.71686562   -796.19479   0.85966344   -796.51346            1   -796.70263 
8    1.9391943    1.2742507   0.15171229    1.3506677    1.9480932   0.85855001   0.61505068    3.0013962            0   -796.99173   0.14004631   -796.79249   0.28289463   -796.44424   0.42968492   -796.18577   0.57204398   -796.13318   0.71767272   -796.28843   0.86066545   -796.57204            1   -796.74823 
9    1.3960343   0.81737677   0.14756817    1.1234686    1.4046567   0.77128053   0.57185076    3.0200441            0    -796.9925   0.13915012   -796.81341   0.28225449    -796.4978   0.42990526   -796.26622   0.57211406   -796.22122   0.71823767   -796.36324    0.8614299   -796.62628            1   -796.79307 
10      1.01108   0.48547222   0.14222236   0.92857105    1.0181971   0.70695455   0.54910508    3.0407503            0   -796.99349   0.13843723   -796.83074   0.28176358   -796.53628   0.42997847   -796.32384    0.5720361   -796.28653   0.71846017   -796.42244   0.86175682   -796.67563            1   -796.83564 
11   0.79996027   0.31100676   0.13569156   0.76675397   0.77034274   0.66023069   0.53914117    3.0627059            0    -796.9947   0.13801417   -796.84464   0.28148208   -796.56513   0.42983315   -796.36481   0.57175394   -796.33447   0.71821916    -796.4702   0.86150432   -796.71856            1   -796.87362 
12   0.86132188    0.3277019   0.13001435   0.75196659   0.87038802   0.63039302   0.53898992    3.0843957            0   -796.99609    0.1379049   -796.85486   0.28145252   -796.58208   0.42946322   -796.39061   0.57127987    -796.3657   0.71747396     -796.504   0.86071192   -796.75345            1   -796.90469 
13    1.5091245   0.70306449   0.13398513    1.0476833    1.5143497   0.62359907   0.54110149    3.0956941            0   -796.99682   0.13791324   -796.85936   0.28142043   -796.59122   0.42917258   -796.39691   0.57090959   -796.37322   0.71688617    -796.5193   0.86016624    -796.7639            1   -796.91432 
14    1.5091245   0.70306449   0.13398513    1.0476833    1.5143497   0.62359907   0.54110149    3.0956941            0   -796.99682   0.13791324   -796.85936   0.28142043   -796.59122   0.42917258   -796.39691   0.57090959   -796.37322   0.71688617    -796.5193   0.86016624    -796.7639            1   -796.91432 
15    1.4434208   0.66644509    0.1329934    1.0123932    1.4488731   0.62251493   0.54057003    3.0957402            0   -796.99683   0.13791846   -796.85943   0.28142138   -796.59182   0.42916578   -796.39786   0.57090587   -796.37432   0.71687699   -796.51988   0.86015649   -796.76451            1   -796.91489 
16    1.3143229   0.59418435   0.13113827   0.94356907    1.3202912   0.62049276    0.5396179     3.095859            0   -796.99686   0.13792835   -796.85959   0.28142338   -796.59292   0.42915228   -796.39964   0.57089793   -796.37636   0.71685802   -796.52098   0.86013657   -796.76568            1   -796.91598 
17    1.1307838   0.49021061   0.12871708   0.84713434    1.1376989   0.61784286   0.53845363    3.0961114            0    -796.9969   0.13794163   -796.85982   0.28142695   -796.59431   0.42913214   -796.40196   0.57088458   -796.37905   0.71682751   -796.52247   0.86010526   -796.76732            1   -796.91751 
18   0.91269913   0.36235901   0.12616963   0.73554106   0.92125315   0.61498306   0.53737903     3.096596            0   -796.99695   0.13795662   -796.86014   0.28143309   -796.59571   0.42910481   -796.40446   0.57086349   -796.38197   0.71678191   -796.52419    0.8600598   -796.76931            1   -796.91935 
19   0.70014478   0.22492993   0.12398194   0.63100581   0.71130364   0.61231338   0.53667722    3.0974494            0   -796.99704   0.13797178   -796.86056   0.28144331   -796.59693   0.42906834   -796.40678   0.57083071   -796.38472   0.71671482   -796.52604   0.85999492   -796.77155            1    -796.9214 
20   0.58575768   0.20558649   0.12245194   0.56111148   0.56997598   0.60999777   0.53645728    3.0988092            0   -796.99715   0.13798655   -796.86113   0.28145919   -796.59796   0.42901918   -796.40878   0.57078112   -796.38715   0.71661783   -796.52806   0.85990345   -796.77399            1   -796.92361 
21   0.55114656   0.20597986   0.12140777   0.53093093   0.51871046   0.60781994   0.53650838    3.1006721            0    -796.9973   0.13800183   -796.86184   0.28148056    -796.5991   0.42895571   -796.41069   0.57071307   -796.38948    0.7164888    -796.5304   0.85978373   -796.77663            1   -796.92599 
22   0.53636071   0.20270368   0.12044461   0.51669079   0.50361082   0.60547947    0.5365466    3.1028931            0   -796.99747   0.13801916   -796.86267   0.28150562   -796.60055   0.42888033   -796.41277   0.57063022   -796.39199   0.71633452   -796.53316   0.85964188   -796.77946            1   -796.92854 
23   0.52386193   0.19732063   0.11939289   0.50420042   0.49265909   0.60290339   0.53651304    3.1054019            0   -796.99766   0.13803975   -796.86358   0.28153398   -796.60229   0.42879472   -796.41508   0.57053485   -796.39475   0.71615856   -796.53626   0.85948111   -796.78248            1   -796.93127 
24   0.51067489   0.19095349   0.11823118   0.49101183   0.48124905   0.60012624   0.53643873    3.1081866            0   -796.99787   0.13806433   -796.86458     0.281566   -796.60421   0.42869931   -796.41759   0.57042738   -796.39774   0.71596132   -796.53963   0.85930189   -796.78571            1   -796.93418 
25   0.49667072   0.18404804   0.11695885   0.47700958    0.4692197   0.59718104    0.5363366    3.1112462            0    -796.9981    0.1380935   -796.86564   0.28160193   -796.60627   0.42859418   -796.42025   0.57030765   -796.40092   0.71574253   -796.54321   0.85910417   -796.78912            1   -796.93725 
26   0.48194065   0.17673105   0.11557627   0.46228539   0.45666298   0.59409886   0.53621361    3.1145816            0   -796.99834   0.13812777   -796.86676    0.2816419   -796.60844   0.42847932   -796.42306   0.57017531   -796.40425   0.71550186   -796.54696   0.85888795   -796.79268            1   -796.94046 
27   0.46658436   0.16905695   0.11408401   0.44694507    0.4436745   0.59090481    0.5360801    3.1181936            0   -796.99861   0.13816763   -796.86793   0.28168594   -796.61071   0.42835473   -796.42598   0.57003004   -796.40771   0.71523908   -796.55086    0.8586533   -796.79636            1   -796.94379 
28   0.45069959   0.16107957   0.11248286    0.4310936   0.43034463   0.58762402   0.53592377    3.1220829            0    -796.9989   0.13821359   -796.86915   0.28173402   -796.61306   0.42822049     -796.429   0.56987152   -796.41127   0.71495407   -796.55487   0.85840046   -796.80014            1    -796.9472 
29    0.4343817   0.15285511   0.11077387   0.41483305   0.41675946   0.58427996   0.53574697      3.12625            0    -796.9992   0.13826613   -796.87041   0.28178608   -796.61548   0.42807674    -796.4321   0.56969951   -796.41492   0.71464693   -796.55897   0.85812982     -796.804            1   -796.95067 
30   0.41772229   0.14444238   0.10895826   0.39826393   0.40299965   0.58089398   0.53554489    3.1306947            0   -796.99953   0.13832573   -796.87171   0.28184198   -796.61796   0.42792369   -796.43527   0.56951385   -796.41863   0.71431793   -796.56314   0.85784195   -796.80791            1   -796.95418 
31   0.40080813    0.1359026   0.10703763   0.38148261   0.38913961   0.57748202   0.53531057    3.1354164            0   -796.99987   0.13839286   -796.87303   0.28190152   -796.62049   0.42776165   -796.43848   0.56931446   -796.42238   0.71396754   -796.56734    0.8575376   -796.81185            1   -796.95769 
32   0.38371995   0.12729715    0.1050139    0.3645794   0.37524786   0.57406517   0.53503595    3.1404144            0   -797.00022   0.13846796   -796.87437   0.28196448   -796.62306   0.42759101   -796.44172   0.56910137   -796.42616   0.71359649   -796.57156   0.85721771   -796.81578            1   -796.96119 
33   0.36653279   0.11868711   0.10288924   0.34763776    0.3613865   0.57066198     0.534721    3.1456869            0    -797.0006   0.13855146   -796.87573   0.28203056   -796.62566   0.42741228   -796.44497    0.5688747   -796.42994   0.71320572   -796.57578   0.85688341   -796.81969            1   -796.96466 
34    0.3493154     0.110134   0.10066624   0.33073372   0.34761168   0.56728167   0.53436814    3.1512321            0   -797.00098   0.13864378    -796.8771   0.28209944   -796.62828   0.42722605   -796.44823   0.56863472    -796.4337   0.71279641   -796.57997   0.85653601   -796.82356            1   -796.96807 
35   0.33212981   0.10209863  0.098347837   0.31393537    0.3339752   0.56393028   0.53398367    3.1570473            0   -797.00138   0.13874528   -796.87848   0.28217078    -796.6309     0.427033   -796.45148   0.56838182   -796.43745   0.71236998    -796.5841   0.85617699   -796.82736            1   -796.97143 
36   0.31503059  0.096037906  0.095937352   0.29730251   0.32052361   0.56063398   0.53354434    3.1631293            0    -797.0018   0.13885632   -796.87986   0.28224422   -796.63354   0.42683393   -796.45471   0.56811654   -796.44116   0.71192807   -796.58818   0.85580798   -796.83108            1   -796.97471 
37    0.2980672  0.090048319  0.093438533      0.28089   0.30729844   0.55741439   0.53302693    3.1694743            0   -797.00222    0.1389772   -796.88124   0.28231938   -796.63617   0.42662969   -796.45792   0.56783959   -796.44481   0.71147254   -796.59219   0.85543077   -796.83471            1   -796.97784 
38   0.28128364  0.084154689  0.090855544   0.26473558   0.29433931   0.55427843   0.53247718    3.1760781            0   -797.00267   0.13910817   -796.88262    0.2823959   -796.63879   0.42642122   -796.46109   0.56755184   -796.44839   0.71100547   -796.59612   0.85504724   -796.83823            1   -796.98087 
39   0.26471894  0.078372234  0.088192823   0.24887448   0.28168469   0.55122307    0.5318962    3.1829359            0   -797.00312   0.13924941   -796.88399   0.28247342   -796.64138   0.42620953   -796.46423   0.56725433    -796.4519   0.71052913   -796.59996    0.8546594   -796.84163            1    -796.9838 
40   0.24840814  0.072729344  0.085455227    0.2333377   0.26937226   0.54826719   0.53130783    3.1900424            0   -797.00359   0.13940101   -796.88535   0.28255158   -796.64393   0.42599568   -796.46729   0.56694832   -796.45532   0.71004602    -796.6037   0.85426933   -796.84494            1   -796.98663 
41   0.23238591   0.06720834  0.082647991   0.21814599   0.25743967   0.54540709   0.53068743    3.1973916            0   -797.00407   0.13956292    -796.8867   0.28263006   -796.64644   0.42578078   -796.47029    0.5666352   -796.45866   0.70955879   -796.60734   0.85387924   -796.84815            1   -796.98935 
42   0.21668934  0.061927192  0.079776752   0.20332388    0.2459393   0.54265362   0.53000108    3.2049772            0   -797.00456   0.13973498   -796.88803   0.28270851    -796.6489     0.425566    -796.4732   0.56631663    -796.4619   0.70907034   -796.61087   0.85349139   -796.85124            1    -796.9919 
43   0.20149857  0.056520406  0.076848509   0.18894636   0.23514568   0.54002846   0.52929409    3.2127918            0   -797.00505   0.13991677   -796.88935   0.28278659    -796.6513   0.42535251   -796.47602   0.56599446   -796.46502   0.70858382   -796.61427   0.85310822   -796.85421            1   -796.99432 
44   0.19059584   0.05251605  0.073897321   0.17626136   0.23088067   0.53754829   0.52848607    3.2208143            0   -797.00555   0.14010729   -796.89064    0.2828637   -796.65367    0.4251419   -796.47873   0.56567141     -796.468   0.70810349   -796.61747   0.85273301   -796.85707            1   -796.99649 
45   0.31686321   0.10582552  0.071583765    0.1910685   0.34592105   0.53559422   0.52828394    3.2287311            0   -797.00605   0.14029523   -796.89185   0.28293251    -796.6557   0.42494071   -796.48103   0.56535894   -796.47046   0.70765532   -796.62038   0.85238467   -796.85966            1   -796.99874 
46   0.45202861   0.19458513  0.071071594   0.21130751   0.47294737    0.5353064   0.52799254    3.2319239            0   -797.00623   0.14036799   -796.89232    0.2829524   -796.65679   0.42486144   -796.48168   0.56523579   -796.47092   0.70750019   -796.62105   0.85225733   -796.86064            1   -796.99891 
47   0.45202861   0.19458513  0.071071594   0.21130751   0.47294737    0.5353064   0.52799254    3.2319239            0   -797.00623   0.14036799   -796.89232    0.2829524   -796.65679   0.42486144   -796.48168   0.56523579   -796.47092   0.70750019   -796.62105   0.85225733   -796.86064            1   -796.99891 
48   0.43054133   0.18457693  0.070923055   0.20645885   0.45246681   0.53519417   0.52791438    3.2319784            0   -797.00623   0.14036995   -796.89233   0.28295364    -796.6568   0.42486063   -796.48175   0.56523449   -796.47104   0.70749718   -796.62113   0.85225448   -796.86067            1   -796.99895 
49    0.3885764   0.16478181  0.070644887   0.19726502   0.41276093   0.53498575   0.52777317     3.232095            0   -797.00624   0.14037391   -796.89236   0.28295602   -796.65683   0.42485875    -796.4819   0.56523148   -796.47126   0.70749082   -796.62129   0.85224859   -796.86073            1   -796.99903 
50   0.32984837   0.13629079  0.070278496   0.18507651   0.35805424   0.53471519   0.52760038    3.2322914            0   -797.00626   0.14038003   -796.89239   0.28295936   -796.65688   0.42485515   -796.48209   0.56522579   -796.47154   0.70748025    -796.6215   0.85223925   -796.86082            1   -796.99914 
51   0.26262606   0.10160556  0.069880598   0.17224544   0.29731241   0.53442695   0.52743653    3.2325958            0   -797.00628   0.14038862   -796.89244   0.28296345   -796.65695   0.42484887   -796.48231   0.56521597   -796.47185   0.70746399   -796.62175   0.85222566   -796.86095            1   -796.99929 
52   0.20243588  0.065680518   0.06950578   0.16181273   0.24578999   0.53416044   0.52731527    3.2330442            0   -797.00631    0.1404002   -796.89251   0.28296818   -796.65705   0.42483879   -796.48254   0.56520029   -796.47215   0.70744014   -796.62202   0.85220672   -796.86111            1   -796.99947 
53   0.17002606  0.045245335  0.069176633   0.15576438   0.21779609    0.5339279    0.5272396    3.2336574            0   -797.00635   0.14041518   -796.89261   0.28297362    -796.6572   0.42482437   -796.48277   0.56517791   -796.47242   0.70740751   -796.62229   0.85218173   -796.86131            1   -796.99966 
54   0.16350308  0.044332179  0.068867737   0.15304472   0.20939755   0.53370822   0.52717827    3.2344152            0    -797.0064   0.14043329   -796.89272   0.28297986   -796.65738   0.42480631     -796.483   0.56514986   -796.47269    0.7073672   -796.62258   0.85215139   -796.86155            1   -796.99987 
55   0.16135815  0.043632182  0.068541728    0.1514282   0.20739767   0.53347656   0.52710507    3.2352873            0   -797.00645   0.14045405   -796.89285   0.28298692    -796.6576   0.42478557   -796.48326   0.56511761   -796.47298   0.70732099    -796.6229   0.85211677   -796.86183            1   -797.00008 
56   0.15970826  0.043033714  0.068182339    0.1498989   0.20626709   0.53322363   0.52701556    3.2362632            0   -797.00651   0.14047729     -796.893   0.28299478   -796.65785    0.4247625   -796.48355    0.5650817   -796.47329   0.70726959   -796.62324   0.85207831   -796.86214            1   -797.00031 
57   0.15794722  0.042447252   0.06778652   0.14824892   0.20510969   0.53294796   0.52691246    3.2373412            0   -797.00658   0.14050297   -796.89316   0.28300342   -796.65813   0.42473719   -796.48387   0.56504225   -796.47363   0.70721323   -796.62362   0.85203618   -796.86247            1   -797.00055 
58   0.15603576  0.041830028  0.067354275   0.14645822   0.20386141    0.5326503   0.52679834    3.2385207            0   -797.00665   0.14053107   -796.89333   0.28301282   -796.65843   0.42470972   -796.48421   0.56499936     -796.474   0.70715208   -796.62402   0.85199049   -796.86284            1    -797.0008 
59   0.15397714  0.041169351  0.066885984    0.1445295   0.20252461     0.532332    0.5266743    3.2398013            0   -797.00673    0.1405616   -796.89352   0.28302296   -796.65875   0.42468014   -796.48458   0.56495313    -796.4744   0.70708631   -796.62446   0.85194138   -796.86323            1   -797.00108 
60   0.15177637  0.040464265  0.066382069   0.14246714   0.20110427   0.53199325   0.52654076    3.2411823            0   -797.00682   0.14059451   -796.89372   0.28303382    -796.6591   0.42464854   -796.48497   0.56490367   -796.47483   0.70701612   -796.62493   0.85188902   -796.86365            1   -797.00137 
61   0.14943864  0.039716436  0.065843002   0.14027586   0.19960574   0.53163474   0.52639846    3.2426632            0   -797.00691   0.14062979   -796.89394   0.28304538   -796.65947     0.424615   -796.48538   0.56485109   -796.47528   0.70694171   -796.62543   0.85183357   -796.86409            1   -797.00167 
62   0.14696949  0.038927827   0.06526926   0.13796065   0.19803473   0.53125857   0.52624733    3.2442431            0   -797.00701   0.14066741   -796.89416    0.2830576   -796.65986    0.4245796   -796.48582   0.56479554   -796.47575   0.70686332   -796.62595   0.85177521   -796.86456            1   -797.00199 
63   0.14437474  0.038100495  0.064661373   0.13552673   0.19639728   0.53086519   0.52608706    3.2459214            0   -797.00711   0.14070733    -796.8944   0.28307045   -796.66026   0.42454244   -796.48628   0.56473716   -796.47624    0.7067812    -796.6265   0.85171415   -796.86506            1   -797.00233 
64   0.14166049  0.037236593  0.064019898   0.13297954   0.19469973   0.53045525    0.5259174     3.247697            0   -797.00721    0.1407495   -796.89465   0.28308391   -796.66069   0.42450363   -796.48676   0.56467612   -796.47676   0.70669563   -796.62707    0.8516506   -796.86558            1   -797.00267 
65   0.13883312  0.036338359  0.063345415   0.13032477   0.19294872   0.53003122   0.52573993    3.2495691            0   -797.00732   0.14079388   -796.89492   0.28309793   -796.66114   0.42446328   -796.48725   0.56461259   -796.47729   0.70660689   -796.62767   0.85158481   -796.86611            1   -797.00303 
66   0.13589932  0.035408107  0.062638519   0.12756826   0.19115112    0.5295945   0.52555413    3.2515366            0   -797.00744    0.1408404   -796.89519   0.28311248    -796.6616   0.42442149   -796.48777   0.56454676   -796.47784   0.70651529   -796.62829   0.85151702   -796.86667            1    -797.0034 
67   0.13286586  0.034448221  0.061899823   0.12471583   0.18931418   0.52914121   0.52535496    3.2535983            0   -797.00756   0.14088899   -796.89547   0.28312752   -796.66208    0.4243784   -796.48829   0.56447886   -796.47842   0.70642119   -796.62894   0.85144751   -796.86725            1   -797.00377 
68   0.12973976  0.033461146   0.06113002   0.12177382   0.18744521   0.52867752   0.52514988     3.255753            0   -797.00768   0.14093957   -796.89577   0.28314299   -796.66257   0.42433414   -796.48884   0.56440911   -796.47901   0.70632495    -796.6296   0.85137656   -796.86785            1   -797.00416 
69   0.12652827  0.032449387  0.060329695    0.1187485   0.18555177   0.52820521    0.5249377    3.2579994            0   -797.00781   0.14099204   -796.89607   0.28315884   -796.66308   0.42428883    -796.4894   0.56433775   -796.47961   0.70622694   -796.63028   0.85130451   -796.86846            1   -797.00455 
70   0.12323878  0.031564615  0.059499666   0.11564628   0.18364159   0.52772579   0.52471668    3.2603359            0   -797.00795   0.14104629   -796.89638   0.28317503    -796.6636   0.42424263   -796.48998   0.56426505   -796.48022    0.7061276   -796.63098   0.85123167   -796.86909            1   -797.00494 
71   0.11987887   0.03076274  0.058640653   0.11247363   0.18172257   0.52724073   0.52448835     3.262761            0   -797.00809    0.1411022    -796.8967   0.28319149   -796.66413   0.42419569   -796.49056   0.56419131   -796.48085   0.70602736    -796.6317   0.85115842   -796.86973            1   -797.00534 
72   0.11645623  0.029939768  0.057753356   0.10923709   0.17980275   0.52675135   0.52425351    3.2652729            0   -797.00823   0.14115962   -796.89704   0.28320816   -796.66467   0.42414817   -796.49115   0.56411684   -796.48148   0.70592669   -796.63243   0.85108514   -796.87039            1   -797.00573 
73   0.11297875  0.029097007   0.05683843    0.1059433   0.17789027   0.52625865   0.52401225    3.2678699            0   -797.00838   0.14121841   -796.89737   0.28322496   -796.66522   0.42410023   -796.49174   0.56404197   -796.48212   0.70582611   -796.63318   0.85101224   -796.87106            1   -797.00613 
74   0.10945432  0.028235815  0.055896641    0.1025992   0.17599334   0.52576423   0.52376529      3.27055            0   -797.00853   0.14127838   -796.89772   0.28324182   -796.66577   0.42405206   -796.49234   0.56396706   -796.48276   0.70572615   -796.63394   0.85094015   -796.87175            1   -797.00653 
75   0.10589091  0.027357571   0.05492881   0.09921129   0.17412016   0.52527014   0.52351273    3.2733109            0   -797.00868   0.14133933   -796.89807   0.28325867   -796.66634   0.42400383   -796.49294   0.56389251   -796.48341   0.70562738   -796.63472   0.85086936   -796.87245            1   -797.00693 
76   0.10229659  0.026463727    0.0539356  0.095786202   0.17227901   0.52477643   0.52325427    3.2761505            0   -797.00884   0.14140105   -796.89843   0.28327541   -796.66691   0.42395575   -796.49354   0.56381873   -796.48406   0.70553042    -796.6355   0.85080035   -796.87317            1   -797.00732 
77  0.098679647  0.025555705  0.052917708  0.092330666   0.17047801   0.52428259   0.52298914    3.2790663            0     -797.009   0.14146329    -796.8988   0.28329195   -796.66749   0.42390801   -796.49415   0.56374617   -796.48472   0.70543591    -796.6363   0.85073367    -796.8739            1   -797.00771 
78  0.095048918  0.024635136  0.051875811  0.088851443   0.16872543   0.52379263   0.52271951    3.2820557            0   -797.00917   0.14152578   -796.89917   0.28330818   -796.66808   0.42386084   -796.49475   0.56367531   -796.48537   0.70534454   -796.63711   0.85066986   -796.87464            1   -797.00809 
79  0.091411772  0.023703258   0.05081047  0.085355305   0.16702898   0.52330703   0.52244567    3.2851158            0   -797.00933   0.14158823   -796.89955   0.28332401   -796.66867   0.42381446   -796.49535   0.56360667   -796.48602   0.70525704   -796.63792   0.85060955   -796.87539            1   -797.00847 
80  0.087777559  0.022762613   0.04972232  0.081849279    0.1653992   0.52282797    0.5221687    3.2882435            0    -797.0095   0.14165032   -796.89993    0.2833393   -796.66926   0.42376912   -796.49595   0.56354081   -796.48667    0.7051742   -796.63875   0.85055337   -796.87615            1   -797.00884 
81   0.08416856  0.021812002  0.048612229  0.078343002    0.1638562   0.52235333   0.52188558    3.2914354            0   -797.00967   0.14171171   -796.90032   0.28335392   -796.66985   0.42372502   -796.49653   0.56347829   -796.48732   0.70509685   -796.63958   0.85050199   -796.87692            1    -797.0092 
82  0.080816284  0.020863434  0.047484013  0.074886057   0.16268266   0.52189807   0.52160627    3.2946863            0   -797.00984   0.14177196   -796.90072   0.28336776   -796.67044   0.42368257   -796.49712   0.56341989   -796.48795   0.70502591   -796.64043   0.85045618   -796.87771            1   -797.00955 
83  0.087551309  0.020256781  0.046391132  0.072170564   0.16624101   0.52142304   0.52129546    3.2979644            0   -797.01001   0.14183015   -796.90111   0.28338027   -796.67103   0.42364176   -796.49764   0.56336641   -796.48859   0.70496298   -796.64124    0.8504171   -796.87849            1   -797.00989 
84   0.17981321  0.068423641   0.04597881  0.077588244   0.21986982   0.52127184   0.52126495    3.3008257            0   -797.01017   0.14187698   -796.90148   0.28338865   -796.67146    0.4236071   -796.49808   0.56332765    -796.4889   0.70491774   -796.64202   0.85039079   -796.87918            1   -797.01017 
85   0.07515492  0.018962166  0.045184462  0.068210621   0.16105326   0.52101368   0.52103305    3.3013123            0   -797.01019     0.141886   -796.90153    0.2833916   -796.67159   0.42359985   -796.49822   0.56332249   -796.48918   0.70491073   -796.64213    0.8503867   -796.87932            1   -797.01021 
86  0.072790697  0.018758283  0.044927779  0.067218823   0.15947098   0.52090796   0.52095668    3.3019869            0   -797.01023   0.14189666   -796.90161   0.28339344   -796.67172   0.42359252   -796.49832   0.56331393   -796.48932    0.7049017   -796.64229   0.85038202   -796.87947            1   -797.01028 
87  0.072020832  0.018554911  0.044672458   0.06648075   0.15918759   0.52081821   0.52089746    3.3027084            0   -797.01026   0.14190786    -796.9017   0.28339538   -796.67184   0.42358503   -796.49843   0.56330517   -796.48945   0.70489248   -796.64248   0.85037738   -796.87965            1   -797.01034 
88   0.07122638  0.018336873  0.044399419  0.065698169   0.15891544    0.5207209   0.52083317      3.30348            0    -797.0103   0.14191969    -796.9018   0.28339739   -796.67197   0.42357714   -796.49855   0.56329613   -796.48958   0.70488313   -796.64268   0.85037284   -796.87984            1   -797.01041 
89  0.070387346  0.018105779  0.044108597  0.064869407   0.15863551   0.52061927   0.52076611    3.3043012            0   -797.01034   0.14193209    -796.9019   0.28339945   -796.67211   0.42356893   -796.49867   0.56328693   -796.48972   0.70487376   -796.64289   0.85036848   -796.88004            1   -797.01049 
90  0.069504075  0.017861677  0.043800121   0.06399568   0.15834591   0.52051246   0.52069497    3.3051716            0   -797.01038   0.14194503     -796.902   0.28340154   -796.67226   0.42356041   -796.49881   0.56327763   -796.48987    0.7048645   -796.64311    0.8503644   -796.88025            1   -797.01057 
91   0.06857814  0.017604972  0.043474141  0.063078389   0.15804888   0.52040103   0.52062018    3.3060903            0   -797.01043   0.14195845   -796.90212   0.28340364   -796.67241   0.42355164   -796.49894   0.56326836   -796.49003   0.70485549   -796.64335   0.85036072   -796.88047            1   -797.01065 
92  0.067611215  0.017335983  0.043130811  0.062119011   0.15774549   0.52028499   0.52054154    3.3070569            0   -797.01048   0.14197229   -796.90224   0.28340574   -796.67258   0.42354266   -796.49909   0.56325919   -796.49019   0.70484687   -796.64359   0.85035756   -796.88071            1   -797.01073 
93  0.066605107  0.017055092  0.042770292  0.061119092    0.1574377   0.52016478   0.52045932    3.3080705            0   -797.01052    0.1419865   -796.90236   0.28340781   -796.67274   0.42353352   -796.49923   0.56325026   -796.49036    0.7048388   -796.64385   0.85035502   -796.88096            1   -797.01082 
94  0.065561683  0.016762678  0.042392763  0.060080241   0.15712692   0.52004054   0.52037345    3.3091303            0   -797.01057   0.14200101    -796.9025   0.28340982   -796.67292   0.42352428   -796.49939   0.56324167   -796.49053   0.70483143   -796.64412   0.85035325   -796.88122            1   -797.01091 
95  0.064482861  0.016459154  0.041998416  0.059004131   0.15681515   0.51991291   0.52028436    3.3102355            0   -797.01063   0.14201577   -796.90263   0.28341176    -796.6731   0.42351498   -796.49954   0.56323355   -796.49071   0.70482494    -796.6444   0.85035238   -796.88148            1     -797.011 
96  0.063370617  0.016144938  0.041587385  0.057892493   0.15650388   0.51978241   0.52019238    3.3113851            0   -797.01068   0.14203068   -796.90278   0.28341359   -796.67329   0.42350569   -796.49971   0.56322603    -796.4909   0.70481953    -796.6447   0.85035256   -796.88177            1   -797.01109 
97  0.062227017  0.015820479  0.041159863  0.056747111   0.15619523   0.51964895   0.52009715    3.3125783            0   -797.01074   0.14204569   -796.90292   0.28341529   -796.67348   0.42349646   -796.49987   0.56321925   -796.49109   0.70481537     -796.645   0.85035394   -796.88206            1   -797.01119 
98  0.061054142  0.015486232  0.040715998  0.055569825   0.15589062   0.51951259   0.51999844    3.3138141            0    -797.0108   0.14206071   -796.90308   0.28341683   -796.67368   0.42348736   -796.50004   0.56321336   -796.49128   0.70481267   -796.64532   0.85035668   -796.88236            1   -797.01128 
99  0.059854191  0.015142681  0.040255972  0.054362526   0.15559257   0.51937376   0.51989677    3.3150912            0   -797.01086   0.14207566   -796.90324   0.28341817   -796.67389   0.42347846   -796.50021   0.56320851   -796.49148   0.70481164   -796.64564   0.85036094   -796.88267            1   -797.01138 
100  0.058629464   0.01479032  0.039779942  0.053127164   0.15530209    0.5192352   0.51979456    3.3164087            0   -797.01092   0.14209045    -796.9034   0.28341928    -796.6741   0.42346983   -796.50038   0.56320487   -796.49168   0.70481252   -796.64598   0.85036692     -796.883            1   -797.01148 
101  0.057382613  0.014500819  0.039288078  0.051865718   0.15502321   0.51909784    0.5196926    3.3177652            0   -797.01098   0.14210499   -796.90357   0.28342013   -796.67431   0.42346154   -796.50056    0.5632026   -796.49188   0.70481553   -796.64632   0.85037477   -796.88333            1   -797.01158 
102  0.056117891  0.014404909  0.038780561  0.050580291   0.15475596   0.51895824   0.51958718    3.3191596            0   -797.01105   0.14211917   -796.90374   0.28342068   -796.67453   0.42345365   -796.50074   0.56320188   -796.49209   0.70482091   -796.64668   0.85038471   -796.88368            1   -797.01168 
103  0.054850829  0.014305495  0.038257643  0.049273109   0.15451911   0.51881902   0.51948091    3.3205901            0   -797.01111   0.14213291   -796.90392   0.28342089   -796.67475   0.42344629   -796.50092   0.56320292   -796.49229   0.70482893   -796.64704   0.85039692   -796.88403            1   -797.01178 
104  0.053664349  0.014191248  0.037719987  0.047948045   0.15435731   0.51867555   0.51936858    3.3220542            0   -797.01118   0.14214608   -796.90411   0.28342072   -796.67497   0.42343946    -796.5011   0.56320584   -796.49251   0.70483983   -796.64741   0.85041159    -796.8844            1   -797.01187 
105  0.053947809  0.014088717   0.03717091  0.046617772   0.15471338   0.51854155   0.51926468    3.3235426            0   -797.01125   0.14215851   -796.90429   0.28342012   -796.67519   0.42343344   -796.50128     0.563211   -796.49271   0.70485383   -796.64779   0.85042886   -796.88477            1   -797.01197 
106   0.06461282   0.02057861   0.03663165  0.045352266   0.15805776     0.518396   0.51914505    3.3250018            0   -797.01131   0.14216964   -796.90447     0.283419   -796.67541   0.42342791   -796.50143   0.56321798   -796.49292   0.70487068   -796.64815   0.85044823   -796.88514            1   -797.01206 
107  0.089381554  0.034993602   0.03621332  0.044431004   0.16768109   0.51833871   0.51910907    3.3261384            0   -797.01137   0.14217737   -796.90462   0.28341745   -796.67556    0.4234243   -796.50158   0.56322618   -796.49303   0.70488654   -796.64846   0.85046541   -796.88542            1   -797.01214 
108  0.049703747  0.013827129  0.036050355  0.043955723   0.15370536   0.51825852   0.51903391    3.3265448            0   -797.01139   0.14218014   -796.90467   0.28341711   -796.67563   0.42342255   -796.50163   0.56322938   -796.49313   0.70489288   -796.64856   0.85047198   -796.88553            1   -797.01216 
109  0.049270084  0.013790632  0.035889344   0.04358216   0.15362514   0.51822151   0.51900303    3.3269713            0   -797.01141   0.14218275   -796.90472    0.2834165    -796.6757   0.42342161   -796.50168   0.56323279   -796.49318   0.70489968   -796.64867   0.85047921   -796.88563            1   -797.01219 
110    0.0488795  0.013748619  0.035715378   0.04318043   0.15357838   0.51818085    0.5189692    3.3274314            0   -797.01143   0.14218547   -796.90478   0.28341581   -796.67576   0.42342066   -796.50173   0.56323665   -796.49325   0.70490732   -796.64879   0.85048724   -796.88575            1   -797.01222 
111  0.048463167   0.01370327  0.035528465  0.042750981   0.15353167   0.51813766   0.51893311    3.3279246            0   -797.01145   0.14218827   -796.90484   0.28341502   -796.67584   0.42341975   -796.50179   0.56324104   -796.49331   0.70491584   -796.64892   0.85049612   -796.88588            1   -797.01225 
112  0.048021002  0.013654193  0.035328661  0.042294419   0.15348454   0.51809184   0.51889458    3.3284507            0   -797.01147   0.14219114    -796.9049   0.28341412   -796.67591   0.42341888   -796.50185   0.56324602   -796.49338   0.70492533   -796.64905    0.8505059   -796.88601            1   -797.01228 
113  0.047553697  0.013601368  0.035116025  0.041811397   0.15343774   0.51804352   0.51885368    3.3290093            0    -797.0115   0.14219405   -796.90497   0.28341312   -796.67599    0.4234181   -796.50191   0.56325162   -796.49346   0.70493586    -796.6492   0.85051665   -796.88616            1   -797.01231 
114  0.047061991  0.013544668  0.034890621  0.041302604    0.1533918   0.51799275   0.51881042    3.3295997            0   -797.01153   0.14219695   -796.90505   0.28341198   -796.67608   0.42341741   -796.50198   0.56325792   -796.49354   0.70494751   -796.64936   0.85052841   -796.88631            1   -797.01235 
115  0.046546669  0.013483998  0.034652515  0.040768769   0.15334742   0.51793966   0.51876485    3.3302217            0   -797.01156   0.14219983   -796.90513   0.28341071   -796.67617   0.42341686   -796.50205   0.56326498   -796.49362   0.70496037   -796.64952   0.85054127   -796.88647            1   -797.01238 
116   0.04600855   0.01341924  0.034401776  0.040210656   0.15330525   0.51788406   0.51871699    3.3308745            0   -797.01159   0.14220264   -796.90521   0.28340929   -796.67627   0.42341647   -796.50212   0.56327287    -796.4937   0.70497453   -796.64969   0.85055529   -796.88664            1   -797.01242 
117  0.045448687  0.013350283  0.034138474  0.039629068     0.153266   0.51782625   0.51866687    3.3315577            0   -797.01162   0.14220536    -796.9053    0.2834077   -796.67636   0.42341627   -796.50219   0.56328165   -796.49379   0.70499007   -796.64987   0.85057054   -796.88681            1   -797.01246 
118  0.044887602  0.013277003  0.033862681   0.03902484   0.15323039   0.51776639   0.51861399    3.3322707            0   -797.01165   0.14220794   -796.90539   0.28340594   -796.67647    0.4234163   -796.50227   0.56329141   -796.49388   0.70500712   -796.65007   0.85058709     -796.887            1    -797.0125 
119  0.044306724  0.013199278  0.033574469  0.038398842   0.15319917   0.51770461   0.51855874    3.3330128            0   -797.01169   0.14221035   -796.90548     0.283404   -796.67658   0.42341659   -796.50235   0.56330223   -796.49398   0.70502576   -796.65026   0.85060503   -796.88719            1   -797.01254 
120  0.043706922  0.013116976  0.033273913  0.037751974   0.15317309   0.51764114   0.51850131    3.3337834            0   -797.01172   0.14221254   -796.90558   0.28340185   -796.67669   0.42341718   -796.50243   0.56331418   -796.49408   0.70504611   -796.65047   0.85062445    -796.8874            1   -797.01258 
121  0.043089082  0.013029969   0.03296109  0.037085169   0.15315294   0.51757593   0.51844176    3.3345817            0   -797.01176   0.14221447   -796.90568   0.28339948    -796.6768    0.4234181   -796.50251   0.56332736   -796.49418    0.7050683   -796.65069   0.85064542   -796.88761            1   -797.01262 
122  0.042454116  0.012938115   0.03263608  0.036399387    0.1531395   0.51750909    0.5183801     3.335407            0   -797.01179   0.14221611   -796.90578   0.28339689   -796.67692   0.42341941    -796.5026   0.56334185   -796.49428   0.70509243   -796.65091   0.85066804   -796.88782            1   -797.01267 
123  0.041802941  0.012841288  0.032298959  0.035695646    0.1531336   0.51744048   0.51831505    3.3362585            0   -797.01183   0.14221739   -796.90589   0.28339405   -796.67705   0.42342114   -796.50269   0.56335776   -796.49439   0.70511864   -796.65115    0.8506924   -796.88805            1   -797.01271 
124  0.041136502  0.012739328  0.031949807  0.034974938   0.15313602   0.51737037   0.51824777    3.3371354            0   -797.01187   0.14221829     -796.906   0.28339094   -796.67717   0.42342333   -796.50277   0.56337519    -796.4945   0.70514705   -796.65139    0.8507186   -796.88828            1   -797.01275 
125  0.040455742   0.01263213  0.031588701  0.034238301   0.15314767   0.51729894    0.5181785    3.3380368            0   -797.01191   0.14221874   -796.90612   0.28338757    -796.6773   0.42342604   -796.50286   0.56339423   -796.49461   0.70517781   -796.65164   0.85074673   -796.88853            1   -797.01279 
126  0.039761668  0.012519475  0.031215721  0.033486801   0.15316921   0.51722626   0.51810725    3.3389618            0   -797.01195   0.14221871   -796.90624    0.2833839   -796.67743   0.42342932   -796.50295     0.563415   -796.49473   0.70521105    -796.6519   0.85077691   -796.88877            1   -797.01283 
127   0.03905525  0.012401373  0.030830945  0.032721527   0.15320184    0.5171525   0.51803413    3.3399095            0     -797.012   0.14221815   -796.90636   0.28337992   -796.67757   0.42343321   -796.50304   0.56343761   -796.49484   0.70524691   -796.65216   0.85080923   -796.88903            1   -797.01288 
128  0.038338023  0.012277348  0.030434454   0.03194359   0.15324577   0.51707762   0.51795902    3.3408789            0   -797.01204     0.142217   -796.90649   0.28337563    -796.6777   0.42343777   -796.50313   0.56346217   -796.49496   0.70528555   -796.65244    0.8508438    -796.8893            1   -797.01292 
129  0.037613099  0.012148055  0.030026348   0.03115414   0.15330422   0.51700499   0.51788449    3.3418688            0   -797.01208   0.14221522   -796.90662   0.28337101   -796.67784   0.42344307   -796.50323   0.56348881   -796.49508   0.70532712   -796.65272   0.85088074   -796.88957            1   -797.01296 
130  0.036904937  0.012011399  0.029606771  0.030354453   0.15337889   0.51693146   0.51780744    3.3428781            0   -797.01213   0.14221276   -796.90675   0.28336604   -796.67799   0.42344913   -796.50332   0.56351762    -796.4952   0.70537176   -796.65301   0.85092013   -796.88985            1   -797.01301 
131  0.036400472  0.011872882  0.029176326   0.02954669   0.15352564   0.51685964   0.51773111    3.3439044            0   -797.01218   0.14220957   -796.90688   0.28336073   -796.67813   0.42345607   -796.50341   0.56354876   -796.49532   0.70541959   -796.65331   0.85096206   -796.89013            1   -797.01305 
132  0.037764937  0.011719662  0.028739625  0.028740339   0.15409989    0.5167824   0.51764829     3.344936            0   -797.01222   0.14220563   -796.90702   0.28335509   -796.67828   0.42346369   -796.50349   0.56358185   -796.49544   0.70547024   -796.65361   0.85100616   -796.89043            1   -797.01309 
133  0.053241335  0.019615426  0.028335559  0.028006561   0.15778023   0.51673436   0.51759446    3.3458823            0   -797.01226    0.1422013   -796.90715   0.28334953   -796.67839   0.42347164   -796.50358   0.56361442   -796.49553   0.70551925    -796.6539   0.85104858   -796.89069            1   -797.01312 
134  0.049204556  0.017890751  0.028134967  0.027647715   0.15683702   0.51668224    0.5175389    3.3463458            0   -797.01229   0.14219877   -796.90721    0.2833465   -796.67847   0.42347514    -796.5036   0.56363106    -796.4956   0.70554464   -796.65402   0.85107028   -796.89083            1   -797.01314 
135  0.036291383  0.011490764  0.028069222  0.027530934    0.1541776   0.51667266   0.51752824    3.3464955            0   -797.01229   0.14219797   -796.90723   0.28334558   -796.67849    0.4234766   -796.50363   0.56363677   -796.49562   0.70555304   -796.65408   0.85107748   -796.89087            1   -797.01315 
136   0.03422847  0.011465314  0.027986817  0.027384984   0.15377483    0.5166612   0.51751537    3.3466844            0    -797.0123   0.14219689   -796.90725   0.28334441   -796.67852   0.42347845   -796.50365   0.56364387   -796.49564   0.70556363   -796.65414   0.85108658   -796.89092            1   -797.01316 
137  0.033976313   0.01143381  0.027893935  0.027221012    0.1537829    0.5166469   0.51749943    3.3468971            0   -797.01231   0.14219563   -796.90728   0.28334307   -796.67855   0.42348054   -796.50366   0.56365188   -796.49566   0.70557566   -796.65421    0.8510969   -796.89099            1   -797.01316 
138  0.033808049   0.01139797  0.027791586  0.027040985   0.15381389   0.51663064   0.51748132     3.347131            0   -797.01232   0.14219422   -796.90732    0.2833416   -796.67858   0.42348287   -796.50368   0.56366078   -796.49569   0.70558902   -796.65428   0.85110835   -796.89105            1   -797.01317 
139  0.033626612  0.011358551  0.027679825  0.026845191   0.15384848   0.51661288   0.51746148    3.3473858            0   -797.01233   0.14219264   -796.90735   0.28333997   -796.67861   0.42348546    -796.5037    0.5636706   -796.49572   0.70560373   -796.65436   0.85112094   -796.89113            1   -797.01318 
140  0.033430753  0.011315663  0.027558676  0.026633883   0.15388683   0.51659365      0.51744    3.3476612            0   -797.01234   0.14219088   -796.90739    0.2833382   -796.67865   0.42348832   -796.50373   0.56368136   -796.49575   0.70561983   -796.65444   0.85113469   -796.89121            1   -797.01319 
141  0.033220703  0.011269281  0.027428163  0.026407333   0.15392917   0.51657304   0.51741689    3.3479571            0   -797.01236   0.14218893   -796.90743   0.28333628   -796.67869   0.42349146   -796.50375   0.56369309   -796.49578   0.70563735   -796.65453   0.85114964   -796.89129            1    -797.0132 
142  0.032996717  0.011219373  0.027288313  0.026165835    0.1539757   0.51655106   0.51739216    3.3482732            0   -797.01237   0.14218679   -796.90747    0.2833342   -796.67874   0.42349491   -796.50378   0.56370581   -796.49582   0.70565632   -796.65463    0.8511658   -796.89138            1   -797.01321 
143  0.032759062  0.011165907  0.027139156  0.025909701   0.15402666   0.51652774   0.51736583    3.3486091            0   -797.01239   0.14218443   -796.90752   0.28333197   -796.67878   0.42349866    -796.5038   0.56371957   -796.49586   0.70567679   -796.65473   0.85118321   -796.89148            1   -797.01322 
144  0.032508021  0.011108851  0.026980723  0.025639266   0.15408229   0.51650311   0.51733789    3.3489645            0    -797.0124   0.14218186   -796.90756   0.28332958   -796.67883   0.42350275   -796.50383   0.56373438    -796.4959    0.7056988   -796.65485   0.85120188   -796.89159            1   -797.01324 
145  0.032243891  0.011048168  0.026813046  0.025354882   0.15414284   0.51647719   0.51730838    3.3493392            0   -797.01242   0.14217905   -796.90762   0.28332703   -796.67888   0.42350718   -796.50386   0.56375029   -796.49594   0.70572239   -796.65496   0.85122186    -796.8917            1   -797.01325 
146  0.031966985  0.010983822  0.026636162   0.02505692   0.15420859   0.51645002   0.51727729    3.3497328            0   -797.01244   0.14217599   -796.90767   0.28332432   -796.67894   0.42351198   -796.50389   0.56376734   -796.49599    0.7057476   -796.65509   0.85124317   -796.89181            1   -797.01326 
147  0.031677625  0.010915776  0.026450107  0.024745772    0.1542798   0.51642163   0.51724465    3.3501449            0   -797.01245   0.14217267   -796.90773   0.28332144   -796.67899   0.42351717   -796.50392   0.56378556   -796.49603   0.70577449   -796.65522   0.85126585   -796.89194            1   -797.01328 
148  0.031376145  0.010879658  0.026254919  0.024421851   0.15435677   0.51639204   0.51721081     3.350575            0   -797.01247   0.14216907   -796.90778    0.2833184   -796.67905   0.42352276   -796.50396   0.56380499   -796.49608    0.7058031   -796.65536   0.85128993   -796.89206            1   -797.01329 
149  0.031062889  0.010841251   0.02605064  0.024085587   0.15443979   0.51636128   0.51717606    3.3510229            0   -797.01249   0.14216518   -796.90785   0.28331519   -796.67911   0.42352878   -796.50399   0.56382568   -796.49613    0.7058335    -796.6555   0.85131544    -796.8922            1   -797.01331 
150  0.030738213  0.010800182   0.02583731  0.023737414   0.15452918   0.51632928   0.51713971     3.351488            0   -797.01251   0.14216099   -796.90791    0.2833118   -796.67918   0.42353525   -796.50402   0.56384768   -796.49618   0.70586572   -796.65565   0.85134244   -796.89234            1   -797.01332 
151  0.030402478  0.010756333  0.025614974  0.023377787   0.15462524   0.51629592   0.51710166    3.3519699            0   -797.01253   0.14215648   -796.90798   0.28330825   -796.67924    0.4235422   -796.50406   0.56387102   -796.49624   0.70589984   -796.65581   0.85137095   -796.89248            1   -797.01334 
152  0.030056057  0.010709586  0.025383678  0.023007182   0.15472831   0.51626149   0.51706215    3.3524681            0   -797.01256   0.14215163   -796.90805   0.28330453   -796.67931   0.42354965    -796.5041   0.56389576   -796.49629   0.70593591   -796.65597   0.85140101   -796.89263            1   -797.01336 
153  0.029699327  0.010659821  0.025143469  0.022626088   0.15483872     0.516226   0.51702145     3.352982            0   -797.01258   0.14214643   -796.90812   0.28330063   -796.67938   0.42355763   -796.50413   0.56392195   -796.49635   0.70597399   -796.65614   0.85143267   -796.89279            1   -797.01337 
154   0.02933267  0.010606912  0.024894398  0.022235008    0.1549568   0.51618949   0.51697967    3.3535112            0    -797.0126   0.14214086   -796.90819   0.28329656   -796.67945   0.42356617   -796.50417   0.56394965   -796.49641   0.70601415   -796.65632   0.85146597   -796.89295            1   -797.01339 
155   0.02895647  0.010550733  0.024636513  0.021834458    0.1550829   0.51615198   0.51693649    3.3540551            0   -797.01262   0.14213492   -796.90827   0.28329232   -796.67953   0.42357529   -796.50421    0.5639789   -796.49647   0.70605645    -796.6565   0.85150095   -796.89312            1   -797.01341 
156  0.028571094  0.010491153   0.02436987  0.021424965   0.15521737   0.51611352   0.51689192    3.3546131            0   -797.01265   0.14212858   -796.90834   0.28328791    -796.6796   0.42358504   -796.50425   0.56400976   -796.49654   0.70610095   -796.65669   0.85153765    -796.8933            1   -797.01343 
157  0.028176972  0.010428039  0.024094521   0.02100707   0.15536055   0.51607412   0.51684598    3.3551846            0   -797.01267   0.14212183   -796.90842   0.28328334   -796.67968   0.42359543   -796.50428    0.5640423    -796.4966   0.70614773   -796.65689   0.85157611   -796.89348            1   -797.01345 
158   0.02777446  0.010361255  0.023810524  0.020581327   0.15551281   0.51603381   0.51679868     3.355769            0    -797.0127   0.14211466   -796.90851   0.28327861   -796.67976   0.42360651   -796.50432   0.56407657   -796.49666   0.70619685   -796.65709   0.85161639   -796.89367            1   -797.01346 
159  0.027363946   0.01029067  0.023517938  0.020148295   0.15567451   0.51599263   0.51675003    3.3563657            0   -797.01272   0.14210706   -796.90859   0.28327372   -796.67984   0.42361831   -796.50436   0.56411262   -796.49673   0.70624839    -796.6573   0.85165853   -796.89386            1   -797.01348 
160   0.02694583  0.010216154  0.023216823  0.019708547   0.15584601   0.51595059   0.51670004    3.3569739            0   -797.01275   0.14209901   -796.90868   0.28326868   -796.67992   0.42363087    -796.5044   0.56415054    -796.4968   0.70630241   -796.65751   0.85170257   -796.89406            1    -797.0135 
161   0.02652049  0.010137546  0.022907243   0.01926266   0.15602768   0.51590772   0.51664873     3.357593            0   -797.01278   0.14209051   -796.90876    0.2832635      -796.68   0.42364423   -796.50444   0.56419037   -796.49687   0.70635898   -796.65774   0.85174855   -796.89426            1   -797.01352 
162  0.026088307  0.010054778  0.022589261  0.018811223   0.15621987   0.51586404   0.51659615    3.3582222            0    -797.0128   0.14208154   -796.90885   0.28325818   -796.68009   0.42365843   -796.50448   0.56423219   -796.49694   0.70641819   -796.65796   0.85179652   -796.89447            1   -797.01353 
163  0.025649649 0.0099675222  0.022262947   0.01835484   0.15642298   0.51581953   0.51654224    3.3588609            0   -797.01283    0.1420721   -796.90894   0.28325275   -796.68017    0.4236735   -796.50452   0.56427605   -796.49701    0.7064801    -796.6582   0.85184652   -796.89468            1   -797.01355 
164   0.02520495 0.0098762169  0.021928373  0.017894191   0.15663729   0.51577418   0.51648694    3.3595082            0   -797.01286   0.14206219   -796.90904   0.28324722   -796.68026   0.42368951   -796.50456   0.56432204   -796.49708   0.70654478   -796.65844    0.8518986    -796.8949            1   -797.01357 
165  0.024754963 0.0097789456  0.021585627  0.017430766   0.15686356   0.51572885   0.51643058    3.3601633            0   -797.01288    0.1420518   -796.90913   0.28324159   -796.68035   0.42370649   -796.50459   0.56437021   -796.49716   0.70661231   -796.65869    0.8519528   -796.89513            1   -797.01359 
166  0.024306613 0.0096814974   0.02123501  0.016975368   0.15710199   0.51568186   0.51637202    3.3608254            0   -797.01291   0.14204092   -796.90923    0.2832359   -796.68043   0.42372448   -796.50463   0.56442063   -796.49723   0.70668275   -796.65894   0.85200913   -796.89535            1    -797.0136 
167  0.023945749 0.0095640209  0.020879287   0.01665811   0.15736898   0.51563561   0.51631416    3.3614921            0   -797.01294    0.1420296   -796.90932   0.28323018   -796.68052   0.42374351   -796.50467   0.56447328   -796.49731   0.70675602    -796.6592   0.85206757    -796.8956            1   -797.01362 
168  0.033669729  0.013566107  0.020552287  0.018032512   0.15781916   0.51558489   0.51624942    3.3621447            0   -797.01297   0.14201812   -796.90942   0.28322456   -796.68061   0.42376297    -796.5047   0.56452659   -796.49738   0.70683005   -796.65945    0.8521263   -796.89577            1   -797.01363 
169  0.062975333   0.03055453  0.020425797  0.024456665   0.15906851   0.51556401   0.51622256    3.3626019            0   -797.01299    0.1420098   -796.90948   0.28322057   -796.68066   0.42377729   -796.50473    0.5645653   -796.49743   0.70688348   -796.65964   0.85216913   -796.89603            1   -797.01365 
170  0.045202664  0.020745802  0.020317327  0.020164319   0.15837754   0.51555739     0.516215    3.3626449            0   -797.01299   0.14200901   -796.90949   0.28322025   -796.68067   0.42377876   -796.50473   0.56456923   -796.49743    0.7068889   -796.65966   0.85217336   -796.89604            1   -797.01365 
171  0.029821138  0.011103239  0.020230188  0.017022895   0.15798801   0.51554983   0.51620577     3.362708            0   -797.01299   0.14200783    -796.9095   0.28321974   -796.68068   0.42378086   -796.50473   0.56457484   -796.49744   0.70689666   -796.65968   0.85217944   -796.89604            1   -797.01365 
172  0.023055286 0.0093449169  0.020164502  0.015776142   0.15789102   0.51554174    0.5161955    3.3627934            0     -797.013   0.14200623   -796.90951   0.28321902   -796.68069   0.42378366   -796.50473   0.56458235   -796.49745   0.70690704   -796.65972   0.85218759   -796.89606            1   -797.01365 
173  0.022870999 0.0093341495  0.020104891  0.015523425   0.15791596   0.51553357   0.51618507    3.3628947            0     -797.013   0.14200432   -796.90953   0.28321816   -796.68071   0.42378701   -796.50474   0.56459129   -796.49747   0.70691936   -796.65976   0.85219729   -796.89608            1   -797.01365 
174  0.022786169 0.0093158475  0.020040896  0.015432578   0.15796304   0.51552506   0.51617422    3.3630081            0   -797.01301   0.14200218   -796.90954    0.2832172   -796.68072    0.4237908   -796.50474   0.56460135   -796.49748   0.70693322    -796.6598   0.85220821   -796.89612            1   -797.01365 
175  0.022698791 0.0092936902  0.019970495   0.01534526   0.15801643   0.51551587   0.51616251    3.3631328            0   -797.01301   0.14199981   -796.90956   0.28321615   -796.68074     0.423795   -796.50475    0.5646125   -796.49749   0.70694855   -796.65985   0.85222029   -796.89617            1   -797.01366 
176  0.022603563   0.00926905  0.019893545   0.01525047   0.15807515   0.51550588   0.51614975    3.3632688            0   -797.01302   0.14199721   -796.90958   0.28321501   -796.68076   0.42379962   -796.50476   0.56462473   -796.49751   0.70696536   -796.65991   0.85223353   -796.89622            1   -797.01366 
177  0.022500488 0.0092421746  0.019810059   0.01514803   0.15813919   0.51549506   0.51613592    3.3634159            0   -797.01302   0.14199439    -796.9096   0.28321378   -796.68078   0.42380467   -796.50476   0.56463805   -796.49753   0.70698367   -796.65997   0.85224794   -796.89627            1   -797.01366 
178  0.022389643 0.0092130618  0.019720053  0.015038057   0.15820864   0.51548341   0.51612102    3.3635739            0   -797.01303   0.14199134   -796.90962   0.28321246    -796.6808   0.42381015   -796.50477   0.56465249   -796.49755   0.70700348   -796.66004   0.85226352   -796.89633            1   -797.01367 
179  0.022271115  0.009181685  0.019623549  0.014920681   0.15828357   0.51547094   0.51610504    3.3637427            0   -797.01304   0.14198806   -796.90965   0.28321107   -796.68082   0.42381609   -796.50478   0.56466806   -796.49757   0.70702482   -796.66011   0.85228028   -796.89639            1   -797.01367 
180  0.022145019 0.0091480177  0.019520566  0.014796039   0.15836405   0.51545729   0.51608763    3.3639221            0   -797.01304   0.14198456   -796.90968   0.28320959   -796.68084   0.42382247   -796.50479   0.56468476   -796.49759    0.7070477   -796.66018   0.85229824   -796.89645            1   -797.01367 
181  0.022011471 0.0091120308   0.01941113  0.014664279   0.15845019   0.51544225   0.51606858     3.364112            0   -797.01305   0.14198082    -796.9097   0.28320804   -796.68087   0.42382933   -796.50479   0.56470261   -796.49761   0.70707213   -796.66026    0.8523174   -796.89652            1   -797.01368 
182  0.021870526 0.0090736944  0.019295275  0.014525551   0.15854206   0.51542635    0.5160485     3.364312            0   -797.01306   0.14197685   -796.90973   0.28320642   -796.68089   0.42383666    -796.5048   0.56472163   -796.49763   0.70709812   -796.66035   0.85233776    -796.8966            1   -797.01368 
183   0.02172229 0.0090329776  0.019173016  0.014380023   0.15863977    0.5154096   0.51602732    3.3645222            0   -797.01307   0.14197265   -796.90976   0.28320473   -796.68092   0.42384448   -796.50481   0.56474184   -796.49766   0.70712571   -796.66044   0.85235934   -796.89668            1   -797.01369 
184  0.021566872  0.008989848   0.01904438  0.014227867   0.15874341   0.51539199   0.51600505    3.3647421            0   -797.01308   0.14196822   -796.90979   0.28320299   -796.68095    0.4238528   -796.50482   0.56476325   -796.49769   0.70715489   -796.66053   0.85238215   -796.89676            1   -797.01369 
185  0.021404382 0.0089442722  0.018909396  0.014069261   0.15885309   0.51537354   0.51598167    3.3649716            0   -797.01309   0.14196356   -796.90983   0.28320118   -796.68098   0.42386163   -796.50483   0.56478588   -796.49771    0.7071857   -796.66063    0.8524062   -796.89684            1    -797.0137 
186  0.021234938 0.0088962158  0.018768097  0.013904393   0.15896891   0.51535425    0.5159572    3.3652104            0    -797.0131   0.14195867   -796.90986   0.28319933   -796.68101     0.423871   -796.50484   0.56480976   -796.49774   0.70721815   -796.66073   0.85243149   -796.89693            1    -797.0137 
187  0.021058658 0.0088456438  0.018620514  0.013733458   0.15909098   0.51533414   0.51593164    3.3654583            0   -797.01311   0.14195355    -796.9099   0.28319744   -796.68104    0.4238809   -796.50485   0.56483489   -796.49777   0.70725226   -796.66084   0.85245805   -796.89703            1   -797.01371 
188  0.020875663 0.0087925203  0.018466683  0.013556654   0.15921942   0.51531319   0.51590502     3.365715            0   -797.01312    0.1419482   -796.90994   0.28319551   -796.68107   0.42389137   -796.50486    0.5648613   -796.49781   0.70728805   -796.66095   0.85248587   -796.89712            1   -797.01371 
189  0.020686078 0.0087368087   0.01830664  0.013374186   0.15935434   0.51529143   0.51587741    3.3659802            0   -797.01313   0.14194262   -796.90997   0.28319356   -796.68111   0.42390241   -796.50487   0.56488902   -796.49784   0.70732554   -796.66107   0.85251498   -796.89722            1   -797.01372 
190   0.02049003 0.0086784722  0.018140424  0.013186272   0.15949587   0.51526885   0.51584872    3.3662537            0   -797.01314   0.14193682   -796.91001   0.28319159   -796.68114   0.42391404   -796.50488   0.56491805   -796.49787   0.70736475   -796.66119   0.85254537   -796.89733            1   -797.01372 
191  0.020287646 0.0086174738  0.017968073  0.012993131   0.15964411   0.51524544   0.51581898    3.3665351            0   -797.01315   0.14193079   -796.91006   0.28318961   -796.68118   0.42392628   -796.50489   0.56494844   -796.49791   0.70740571   -796.66132   0.85257707   -796.89744            1   -797.01373 
192  0.020079057 0.0085537762  0.017789631   0.01279499   0.15979921   0.51522123   0.51578817    3.3668241            0   -797.01317   0.14192454    -796.9101   0.28318764   -796.68122   0.42393915   -796.50491    0.5649802   -796.49794   0.70744844   -796.66145   0.85261008   -796.89755            1   -797.01373 
193  0.019864391 0.0084873423  0.017605143  0.012592078   0.15996128   0.51519622   0.51575632    3.3671204            0   -797.01318   0.14191808   -796.91014   0.28318568   -796.68125   0.42395268   -796.50492   0.56501335   -796.49798   0.70749295   -796.66158   0.85264441   -796.89766            1   -797.01374 
194  0.019643781 0.0084181354  0.017414656  0.012384631   0.16013046   0.51517043   0.51572341    3.3674237            0   -797.01319   0.14191141   -796.91018   0.28318375   -796.68129   0.42396687   -796.50493   0.56504792   -796.49802   0.70753927   -796.66172   0.85268007   -796.89778            1   -797.01374 
195  0.019417358  0.008346119  0.017218216  0.012172886   0.16030687   0.51514386   0.51568947    3.3677336            0    -797.0132   0.14190453   -796.91023   0.28318186   -796.68133   0.42398176   -796.50494   0.56508393   -796.49806   0.70758743   -796.66187   0.85271708    -796.8979            1   -797.01375 
196  0.019184939 0.0082712578  0.017015877  0.011957088   0.16049027   0.51511651    0.5156545    3.3680497            0   -797.01322   0.14189745   -796.91028   0.28318002   -796.68137   0.42399736   -796.50495   0.56512141    -796.4981   0.70763744   -796.66202   0.85275544   -796.89803            1   -797.01375 
197  0.018946757 0.0081935143  0.016807689  0.011737483    0.1606804   0.51508855   0.51561866    3.3683717            0   -797.01323   0.14189018   -796.91032   0.28317826   -796.68141    0.4240137   -796.50496   0.56516039   -796.49814   0.70768932   -796.66217   0.85279516   -796.89815            1   -797.01376 
198  0.018703054 0.0081128546  0.016593708  0.011514318   0.16087792   0.51505984   0.51558181    3.3686992            0   -797.01324   0.14188272   -796.91037   0.28317659   -796.68145    0.4240308   -796.50497    0.5652009   -796.49818   0.70774311   -796.66233   0.85283625   -796.89829            1   -797.01376 
199  0.018453996 0.0080292377  0.016373991  0.011287846   0.16108316   0.51503039   0.51554394    3.3690319            0   -797.01326   0.14187509   -796.91042   0.28317503   -796.68149    0.4240487   -796.50498   0.56524295   -796.49823   0.70779882   -796.66249   0.85287872   -796.89842            1   -797.01377 
200  0.018199785  0.007942657  0.016148599   0.01105832    0.1612962   0.51500021    0.5155051    3.3693693            0   -797.01327    0.1418673   -796.91047   0.28317359   -796.68153   0.42406741   -796.50499   0.56528658   -796.49827   0.70785647   -796.66266   0.85292257   -796.89856            1   -797.01377 
201  0.017940605 0.0078530039  0.015917594  0.010825997   0.16151733   0.51496922    0.5154652     3.369711            0   -797.01328   0.14185935   -796.91052   0.28317231   -796.68157   0.42408697     -796.505   0.56533181   -796.49831   0.70791609   -796.66283   0.85296782    -796.8987            1   -797.01378 
202  0.017677652 0.0077605214  0.015681051  0.010591147   0.16174633   0.51493764   0.51542447    3.3700566            0    -797.0133   0.14185126   -796.91057    0.2831712   -796.68161    0.4241074   -796.50501   0.56537868   -796.49836   0.70797769     -796.663   0.85301447   -796.89884            1   -797.01378 
203  0.017422695 0.0076642553  0.015439115  0.010354186   0.16198611    0.5149049   0.51538231    3.3704057            0   -797.01331   0.14184305   -796.91062   0.28317029   -796.68165   0.42412874   -796.50502   0.56542721   -796.49841   0.70804129   -796.66318   0.85306252   -796.89899            1   -797.01379 
204  0.017328019 0.0075677125  0.015192739  0.010117218   0.16224731   0.51487264   0.51534052    3.3707576            0   -797.01333   0.14183474   -796.91067   0.28316961   -796.68169     0.424151   -796.50503   0.56547739   -796.49845   0.70810688   -796.66337   0.85311194   -796.89914            1   -797.01379 
205  0.019290665 0.0074594556  0.014952619 0.0099033676   0.16275917   0.51483684   0.51529467    3.3711094            0   -797.01334    0.1418264   -796.91072    0.2831692   -796.68173    0.4241741   -796.50504   0.56552896    -796.4985   0.70817402   -796.66355   0.85316243   -796.89929            1    -797.0138 
206  0.035717034  0.014644775  0.014825643 0.0099405601   0.16570904   0.51481699    0.5152666    3.3714322            0   -797.01336   0.14181871   -796.91076   0.28316899   -796.68177    0.4241958   -796.50505   0.56557722   -796.49854   0.70823691   -796.66373   0.85320952   -796.89942            1   -797.01381 
207  0.028882107  0.010738119  0.014669477 0.0097061577   0.16454007   0.51479541    0.5152404     3.371556            0   -797.01336   0.14181577   -796.91078   0.28316912   -796.68178   0.42420473   -796.50505   0.56559682   -796.49856   0.70826193   -796.66379    0.8532283   -796.89948            1    -797.0138 
208  0.021671527 0.0073155033  0.014615413 0.0096026719   0.16345156   0.51479136   0.51523568    3.3715846            0   -797.01336   0.14181508   -796.91078   0.28316914   -796.68179   0.42420676   -796.50505   0.56560128   -796.49857   0.70826772   -796.66381    0.8532326   -796.89949            1    -797.0138 
209  0.017688216 0.0073081786  0.014572399 0.0095385729   0.16299922   0.51478741   0.51523075    3.3716225            0   -797.01336   0.14181418   -796.91079   0.28316917   -796.68179   0.42420945   -796.50505   0.56560717   -796.49857   0.70827536   -796.66383   0.85323831   -796.89951            1    -797.0138 
210  0.016565458 0.0072970382  0.014534496  0.009497256   0.16291662    0.5147831   0.51522519    3.3716683            0   -797.01336   0.14181309    -796.9108    0.2831692    -796.6818   0.42421273   -796.50505   0.56561434   -796.49858   0.70828465   -796.66386   0.85324523   -796.89953            1   -797.01381 
211  0.016378723 0.0072821246  0.014494976  0.009459963   0.16294081   0.51477809    0.5152187    3.3717208            0   -797.01337   0.14181183    -796.9108   0.28316926    -796.6818   0.42421652   -796.50505    0.5656226   -796.49859   0.70829532   -796.66389    0.8532532   -796.89955            1   -797.01381 
212  0.016321969  0.007264355  0.014451276 0.0094197713   0.16298483   0.51477223   0.51521124    3.3717795            0   -797.01337   0.14181043   -796.91081   0.28316933   -796.68181   0.42422079   -796.50505   0.56563188    -796.4986   0.70830731   -796.66392   0.85326215   -796.89958            1   -797.01381 
213  0.016269144 0.0072443539  0.014402927 0.0093754915   0.16303513   0.51476564   0.51520287    3.3718444            0   -797.01337   0.14180888   -796.91082   0.28316942   -796.68182   0.42422553   -796.50505   0.56564218    -796.4986   0.70832062   -796.66395   0.85327208   -796.89961            1   -797.01381 
214  0.016211476 0.0072223382  0.014349894 0.0093270576   0.16309054   0.51475838   0.51519366    3.3719153            0   -797.01337   0.14180719   -796.91083   0.28316953   -796.68182   0.42423076   -796.50506   0.56565351   -796.49862   0.70833523   -796.66399   0.85328298   -796.89964            1   -797.01381 
215  0.016148784 0.0071983406  0.014292189 0.0092745141     0.163151   0.51475047   0.51518363    3.3719923            0   -797.01338   0.14180536   -796.91084   0.28316967   -796.68183   0.42423647   -796.50506   0.56566587   -796.49863   0.70835117   -796.66404   0.85329485   -796.89967            1   -797.01381 
216  0.016081097 0.0071723563  0.014229826 0.0092179143   0.16321652   0.51474192   0.51517278    3.3720752            0   -797.01338   0.14180339   -796.91085   0.28316984   -796.68184   0.42424268   -796.50506   0.56567927   -796.49864   0.70836842   -796.66408   0.85330771   -796.89971            1   -797.01381 
217  0.016008447   0.00714438  0.014162822 0.0091573158   0.16328713   0.51473273   0.51516112     3.372164            0   -797.01338   0.14180128   -796.91087   0.28317004   -796.68185   0.42424938   -796.50506    0.5656937   -796.49865     0.708387   -796.66413   0.85332153   -796.89975            1   -797.01381 
218  0.015930866 0.0071144064  0.014091193 0.0090927801   0.16336287    0.5147229   0.51514865    3.3722584            0   -797.01339   0.14179903   -796.91088   0.28317028   -796.68186   0.42425659   -796.50506   0.56570919   -796.49866   0.70840691   -796.66419   0.85333634   -796.89979            1   -797.01381 
219  0.015848393 0.0070824304   0.01401496 0.0090243729   0.16344376   0.51471243   0.51513537    3.3723586            0   -797.01339   0.14179666   -796.91089   0.28317057   -796.68187   0.42426431   -796.50506   0.56572572   -796.49868   0.70842815   -796.66424   0.85335213   -796.89984            1   -797.01381 
220  0.015761064 0.0070484467  0.013934141 0.0089521634   0.16352983   0.51470133   0.51512129    3.3724642            0   -797.01339   0.14179416   -796.91091   0.28317092   -796.68188   0.42427255   -796.50507   0.56574332   -796.49869   0.70845073    -796.6643    0.8533689   -796.89989            1   -797.01381 
221  0.015668919 0.0070124499   0.01384876 0.0088762249   0.16362112   0.51468959    0.5151064    3.3725753            0    -797.0134   0.14179153   -796.91092   0.28317132    -796.6819   0.42428131   -796.50507   0.56576198   -796.49871   0.70847465   -796.66437   0.85338665   -796.89994            1   -797.01382 
222     0.015572 0.0069744346  0.013758838 0.0087966342   0.16371767   0.51467722   0.51509071    3.3726917            0    -797.0134   0.14178879   -796.91094   0.28317179   -796.68191   0.42429061   -796.50507   0.56578171   -796.49873   0.70849992   -796.66443   0.85340538   -796.89999            1   -797.01382 
223   0.01547035 0.0069343957  0.013664401 0.0087134715    0.1638195   0.51466421   0.51507423    3.3728132            0   -797.01341   0.14178593   -796.91095   0.28317233   -796.68192   0.42430046   -796.50507   0.56580253   -796.49874   0.70852654    -796.6645   0.85342509   -796.90005            1   -797.01382 
224  0.015364015 0.0068923281  0.013565475 0.0086268206   0.16392667   0.51465058   0.51505695    3.3729398            0   -797.01341   0.14178297   -796.91097   0.28317295   -796.68193   0.42431085   -796.50507   0.56582443   -796.49876   0.70855451   -796.66458   0.85344578    -796.9001            1   -797.01382 
225  0.015253041 0.0068482269  0.013462087 0.0085367683    0.1640392   0.51463631   0.51503888    3.3730712            0   -797.01342   0.14177989   -796.91099   0.28317367   -796.68195   0.42432181   -796.50507   0.56584743   -796.49878   0.70858385   -796.66466   0.85346746   -796.90016            1   -797.01382 
226  0.015137476 0.0068020874  0.013354267 0.0084434045   0.16415714   0.51462142   0.51502002    3.3732074            0   -797.01342   0.14177673   -796.91101   0.28317448   -796.68196   0.42433334   -796.50508   0.56587154    -796.4988   0.70861455   -796.66474   0.85349012   -796.90023            1   -797.01382 
227  0.015017369 0.0067539055  0.013242044  0.008346822   0.16428054   0.51460591   0.51500038    3.3733482            0   -797.01343   0.14177346   -796.91103   0.28317541   -796.68197   0.42434546   -796.50508   0.56589677   -796.49882   0.70864662   -796.66482   0.85351377   -796.90029            1   -797.01382 
228  0.014892772 0.0067036772  0.013125452 0.0082471164   0.16440943   0.51458977   0.51497995    3.3734933            0   -797.01343   0.14177012   -796.91105   0.28317645   -796.68199   0.42435817   -796.50508   0.56592312   -796.49884   0.70868007   -796.66491    0.8535384   -796.90036            1   -797.01382 
229  0.014763736 0.0066513993  0.013004524 0.0081443857   0.16454386   0.51457301   0.51495874    3.3736428            0   -797.01344   0.14176669   -796.91107   0.28317763     -796.682   0.42437149   -796.50508    0.5659506   -796.49887   0.70871489     -796.665   0.85356401   -796.90043            1   -797.01383 
230  0.014630313 0.0065970688  0.012879295 0.0080387305   0.16468387   0.51455563   0.51493677    3.3737963            0   -797.01345    0.1417632   -796.91109   0.28317896   -796.68202   0.42438544   -796.50508   0.56597923   -796.49889    0.7087511   -796.66509    0.8535906    -796.9005            1   -797.01383 
231  0.014492594 0.0065406838  0.012749802 0.0079302533   0.16482952   0.51453719   0.51491358    3.3739537            0   -797.01345   0.14175965   -796.91111   0.28318044   -796.68203   0.42440002   -796.50508   0.56600901   -796.49892   0.70878871   -796.66519   0.85361818   -796.90058            1   -797.01383 
232  0.014350622  0.006482243  0.012616084 0.0078190588   0.16498084   0.51451784   0.51488933    3.3741148            0   -797.01346   0.14175604   -796.91113   0.28318209   -796.68205   0.42441524   -796.50508   0.56603996   -796.49894    0.7088277   -796.66529   0.85364673   -796.90066            1   -797.01383 
233  0.014204452 0.0064217462  0.012478182 0.0077052406   0.16513789   0.51449761   0.51486405    3.3742795            0   -797.01346   0.14175239   -796.91115   0.28318393   -796.68206   0.42443114   -796.50508   0.56607208   -796.49897   0.70886809   -796.66539   0.85367627   -796.90074            1   -797.01383 
234  0.014054145 0.0063591943  0.012336137 0.0075889138   0.16530072   0.51447647   0.51483773    3.3744475            0   -797.01347    0.1417487   -796.91118   0.28318597   -796.68208   0.42444771   -796.50508   0.56610538   -796.49899   0.70890989    -796.6655   0.85370678   -796.90082            1   -797.01383 
235  0.013899727 0.0062945886  0.012189993 0.0074701935   0.16546937   0.51445468    0.5148106    3.3746186            0   -797.01348     0.141745    -796.9112   0.28318823   -796.68209   0.42446498   -796.50508   0.56613989   -796.49902   0.70895309   -796.66561   0.85373826    -796.9009            1   -797.01383 
236  0.013741256 0.0062279325  0.012039796 0.0073491906    0.1656439   0.51443223   0.51478269    3.3747927            0   -797.01348   0.14174128   -796.91122   0.28319073   -796.68211   0.42448296   -796.50508    0.5661756   -796.49905    0.7089977   -796.66572   0.85377072   -796.90099            1   -797.01384 
237  0.013578789 0.0061592276  0.011885594 0.0072260164   0.16582435   0.51440914   0.51475399    3.3749695            0   -797.01349   0.14173757   -796.91124   0.28319347   -796.68212   0.42450167   -796.50508   0.56621254   -796.49908   0.70904373   -796.66584   0.85380415   -796.90108            1   -797.01384 
238  0.013412384  0.006088485  0.011727435 0.0071007834   0.16601078   0.51438541   0.51472453    3.3751487            0    -797.0135   0.14173388   -796.91127    0.2831965   -796.68214   0.42452113   -796.50508   0.56625071   -796.49911   0.70909117   -796.66596   0.85383854   -796.90117            1   -797.01384 
239  0.013242094 0.0060156932  0.011565372 0.0069736067   0.16620323   0.51436113   0.51469423    3.3753303            0   -797.01351   0.14173021   -796.91129   0.28319981   -796.68215   0.42454137   -796.50508   0.56629012   -796.49914   0.70914004   -796.66608    0.8538739   -796.90126            1   -797.01384 
240  0.013067995 0.0059409146  0.011399456  0.006844598   0.16640173   0.51433625   0.51466313     3.375514            0   -797.01351   0.14172659   -796.91131   0.28320344   -796.68217   0.42456239   -796.50508   0.56633079   -796.49918   0.70919032    -796.6662   0.85391021   -796.90135            1   -797.01384 
241  0.012890226 0.0058639848  0.011229744 0.0067138698   0.16660642   0.51431064   0.51463118    3.3756994            0   -797.01352   0.14172303   -796.91134   0.28320741   -796.68218   0.42458422   -796.50508   0.56637272   -796.49921   0.70924203   -796.66633   0.85394748   -796.90145            1   -797.01384 
242  0.012709989 0.0057854988  0.011056295  0.006581537   0.16681715   0.51428454   0.51459862    3.3758865            0   -797.01353   0.14171955   -796.91136   0.28321174    -796.6822   0.42460688   -796.50507   0.56641594   -796.49924   0.70929516   -796.66646   0.85398569   -796.90154            1   -797.01384 
243   0.01254027 0.0057034414  0.010879185 0.0064477381   0.16703592   0.51425754   0.51456505     3.376075            0   -797.01353   0.14171617   -796.91138   0.28321647   -796.68221    0.4246304   -796.50507   0.56646045   -796.49928   0.70934971    -796.6666   0.85402485   -796.90164            1   -797.01384 
244  0.012558857 0.0056254509   0.01069869 0.0063128957   0.16727175    0.5142302   0.51453101    3.3762643            0   -797.01354   0.14171291   -796.91141   0.28322159   -796.68222   0.42465475   -796.50507    0.5665062   -796.49931   0.70940562   -796.66673   0.85406488   -796.90174            1   -797.01384 
245  0.014962224 0.0055253837  0.010517794 0.0061812838   0.16771601   0.51420412   0.51449842    3.3764513            0   -797.01355   0.14170984   -796.91142   0.28322708   -796.68223   0.42467961   -796.50506   0.56655249   -796.49934   0.70946198   -796.66687   0.85410514   -796.90184            1   -797.01384 
246  0.027952363  0.010525705  0.010371379 0.0060911611   0.16951855    0.5141772   0.51446568     3.376601            0   -797.01355   0.14170749   -796.91145   0.28323176   -796.68224   0.42469997   -796.50506   0.56659024   -796.49938   0.70950792   -796.66698   0.85413787   -796.90193            1   -797.01384 
247  0.014737144 0.0054741731   0.01034683   0.00605608   0.16790877   0.51417569   0.51446349    3.3766252            0   -797.01355   0.14170712   -796.91145   0.28323261   -796.68224   0.42470349   -796.50506   0.56659668   -796.49938   0.70951562     -796.667   0.85414334   -796.90194            1   -797.01384 
248  0.011937642 0.0054431393  0.010311108 0.0060275257   0.16774329   0.51417151   0.51445812    3.3766609            0   -797.01356   0.14170659   -796.91145   0.28323383   -796.68224   0.42470857   -796.50506     0.566606   -796.49938   0.70952686   -796.66703   0.85415134   -796.90196            1   -797.01384 
249  0.011889287 0.0054247206  0.010271793 0.0059989822   0.16779257   0.51416491   0.51445009    3.3767002            0   -797.01356   0.14170602   -796.91145   0.28323518   -796.68225   0.42471418   -796.50506   0.56661625   -796.49939   0.70953926   -796.66706   0.85416015   -796.90198            1   -797.01384 
250  0.011844816 0.0054049638  0.010229135 0.0059680933   0.16784671   0.51415824   0.51444186    3.3767427            0   -797.01356   0.14170541   -796.91146   0.28323667   -796.68225   0.42472028   -796.50506   0.56662739    -796.4994   0.70955273   -796.66709   0.85416973     -796.902            1   -797.01384 
251  0.011796873 0.0053835965  0.010183147  0.005934871   0.16790523   0.51415115   0.51443309    3.3767883            0   -797.01356   0.14170477   -796.91146    0.2832383   -796.68225   0.42472688   -796.50505   0.56663943   -796.49941   0.70956727   -796.66712   0.85418005   -796.90203            1   -797.01384 
[...]
2565 1.6704757e-05 9.775229e-06 2.4138382e-10 2.0595645e-10 1.6704757e-05   0.52986374   0.52986374    3.3937769            0    -797.0138   0.12593628    -796.9387   0.25187282   -796.73532   0.37781055   -796.54792   0.50375006   -796.48393   0.66916695   -796.59868   0.83458345   -796.86669            1    -797.0138 
2566 1.6522034e-05 9.6251985e-06 6.2239741e-10 5.4065207e-10 1.6453919e-05   0.52986374   0.52986374    3.3937769            0    -797.0138   0.12593629    -796.9387   0.25187286   -796.73532    0.3778106   -796.54792   0.50375009   -796.48393   0.66916697   -796.59868   0.83458346   -796.86669            1    -797.0138 
2567 1.7711534e-05 9.4690708e-06 1.6271012e-09 1.4370676e-09 1.6232996e-05   0.52986375   0.52986375    3.3937768            0    -797.0138   0.12593631    -796.9387   0.25187289   -796.73532   0.37781064   -796.54792   0.50375013   -796.48393   0.66916699   -796.59868   0.83458346   -796.86669            1    -797.0138 
2568 2.5224918e-05 9.3635717e-06 3.0596897e-09 2.752198e-09 1.6149082e-05   0.52986376   0.52986376    3.3937767            0    -797.0138   0.12593632    -796.9387   0.25187291   -796.73532   0.37781067   -796.54792   0.50375015   -796.48393     0.669167   -796.59868   0.83458347   -796.86669            1    -797.0138 
2569 1.5938504e-05 9.3192271e-06 3.0348974e-10 2.4339324e-10 1.5938504e-05   0.52986376   0.52986376    3.3937767            0    -797.0138   0.12593632    -796.9387   0.25187292   -796.73532   0.37781068   -796.54792   0.50375016   -796.48393     0.669167   -796.59868   0.83458347   -796.86669            1    -797.0138 
2570 1.5867674e-05 9.2767729e-06 2.3565956e-11 1.6969919e-11 1.5867674e-05   0.52986376   0.52986376    3.3937767            0    -797.0138   0.12593633    -796.9387   0.25187293   -796.73532   0.37781069   -796.54792   0.50375017   -796.48393   0.66916701   -796.59868   0.83458348   -796.86669            1    -797.0138 
2571 1.579076e-05 9.230982e-06 1.8935617e-11 9.8283341e-12 1.579076e-05   0.52986376   0.52986376    3.3937767            0    -797.0138   0.12593633    -796.9387   0.25187294   -796.73532   0.37781071   -796.54792   0.50375018   -796.48393   0.66916701   -796.59868   0.83458348   -796.86669            1    -797.0138 
2572 1.5707396e-05 9.1812882e-06 1.8752965e-11 9.5648843e-12 1.5707396e-05   0.52986376   0.52986376    3.3937767            0    -797.0138   0.12593634    -796.9387   0.25187295   -796.73532   0.37781072   -796.54792   0.50375019   -796.48393   0.66916702   -796.59868   0.83458348   -796.86669            1    -797.0138 
2573 1.5617609e-05 9.1277878e-06 1.8653087e-11 9.5026503e-12 1.5617609e-05   0.52986376   0.52986376    3.3937766            0    -797.0138   0.12593634    -796.9387   0.25187296   -796.73532   0.37781073   -796.54792    0.5037502   -796.48393   0.66916703   -796.59868   0.83458348   -796.86669            1    -797.0138 
2574 1.5521437e-05 9.0704833e-06 1.8547643e-11 9.4561155e-12 1.5521437e-05   0.52986377   0.52986377    3.3937766            0    -797.0138   0.12593635    -796.9387   0.25187297   -796.73532   0.37781075   -796.54792   0.50375022   -796.48393   0.66916703   -796.59868   0.83458349   -796.86669            1    -797.0138 
2575 1.5418917e-05 9.0094071e-06 1.8447418e-11 9.402082e-12 1.5418917e-05   0.52986377   0.52986377    3.3937766            0    -797.0138   0.12593635    -796.9387   0.25187299   -796.73532   0.37781077   -796.54792   0.50375023   -796.48393   0.66916704   -796.59868   0.83458349   -796.86669            1    -797.0138 
2576 1.531009e-05 8.9445814e-06 1.8339692e-11 9.3439905e-12 1.531009e-05   0.52986377   0.52986377    3.3937766            0    -797.0138   0.12593636    -796.9387     0.251873   -796.73532   0.37781079   -796.54792   0.50375024   -796.48393   0.66916705   -796.59868   0.83458349   -796.86669            1    -797.0138 
2577 1.5195001e-05 8.8760368e-06  1.82173e-11 9.2847317e-12 1.5195001e-05   0.52986378   0.52986378    3.3937765            0    -797.0138   0.12593636    -796.9387   0.25187302   -796.73532   0.37781081   -796.54792   0.50375026   -796.48393   0.66916705   -796.59868    0.8345835   -796.86669            1    -797.0138 
2578 1.5073697e-05 8.8038007e-06 1.8079406e-11 9.2282191e-12 1.5073697e-05   0.52986378   0.52986378    3.3937765            0    -797.0138   0.12593637    -796.9387   0.25187303   -796.73532   0.37781083   -796.54792   0.50375027   -796.48393   0.66916706   -796.59868    0.8345835   -796.86669            1    -797.0138 
2579 1.4946227e-05 8.7279066e-06 1.7959209e-11 9.1498609e-12 1.4946227e-05   0.52986378   0.52986378    3.3937765            0    -797.0138   0.12593638    -796.9387   0.25187305   -796.73532   0.37781085   -796.54792   0.50375029   -796.48393   0.66916707   -796.59868    0.8345835   -796.86669            1    -797.0138 
2580 1.4812643e-05 8.6483855e-06 1.7828701e-11 9.0866507e-12 1.4812643e-05   0.52986379   0.52986379    3.3937764            0    -797.0138   0.12593639    -796.9387   0.25187307   -796.73532   0.37781087   -796.54792   0.50375031   -796.48393   0.66916708   -796.59868   0.83458351   -796.86669            1    -797.0138 
2581   1.4673e-05 8.5652745e-06 1.7695447e-11 9.038092e-12   1.4673e-05   0.52986379   0.52986379    3.3937764            0    -797.0138    0.1259364    -796.9387   0.25187308   -796.73532    0.3778109   -796.54792   0.50375033   -796.48393   0.66916709   -796.59868   0.83458351   -796.86669            1    -797.0138 
2582 1.4527356e-05 8.4786071e-06 1.7567624e-11 8.9718265e-12 1.4527356e-05   0.52986379   0.52986379    3.3937763            0    -797.0138   0.12593641    -796.9387    0.2518731   -796.73532   0.37781092   -796.54792   0.50375035   -796.48393    0.6691671   -796.59868   0.83458352   -796.86669            1    -797.0138 
2583 1.4375771e-05 8.3884259e-06 1.7441568e-11 8.9232289e-12 1.4375771e-05    0.5298638    0.5298638    3.3937763            0    -797.0138   0.12593641    -796.9387   0.25187313   -796.73532   0.37781095   -796.54792   0.50375037   -796.48393   0.66916711   -796.59868   0.83458352   -796.86669            1    -797.0138 
2584 1.4218308e-05 8.2947639e-06 1.7408231e-11 8.9669338e-12 1.4218308e-05    0.5298638    0.5298638    3.3937763            0    -797.0138   0.12593642    -796.9387   0.25187315   -796.73532   0.37781097   -796.54792   0.50375039   -796.48393   0.66916712   -796.59868   0.83458353   -796.86669            1    -797.0138 
2585 1.4055032e-05 8.1976741e-06 1.7646324e-11 9.1570884e-12 1.4055032e-05    0.5298638    0.5298638    3.3937762            0    -797.0138   0.12593644    -796.9387   0.25187317   -796.73532     0.377811   -796.54792   0.50375041   -796.48393   0.66916713   -796.59868   0.83458353   -796.86669            1    -797.0138 
2586 1.3886012e-05 8.0971785e-06 1.8777753e-11 9.9552128e-12 1.3886012e-05   0.52986381   0.52986381    3.3937762            0    -797.0138   0.12593645    -796.9387   0.25187319   -796.73532   0.37781103   -796.54792   0.50375043   -796.48393   0.66916714   -796.59868   0.83458354   -796.86669            1    -797.0138 
2587 1.3711983e-05 7.9933644e-06 2.3164246e-11 1.2647207e-11 1.3711318e-05   0.52986381   0.52986381    3.3937761            0    -797.0138   0.12593646    -796.9387   0.25187322   -796.73532   0.37781106   -796.54792   0.50375046   -796.48393   0.66916715   -796.59868   0.83458354   -796.86669            1    -797.0138 
2588 1.3540198e-05 7.8861877e-06 3.7554096e-11 2.0540626e-11 1.3531026e-05   0.52986382   0.52986382    3.3937761            0    -797.0138   0.12593647    -796.9387   0.25187324   -796.73532    0.3778111   -796.54792   0.50375048   -796.48393   0.66916716   -796.59868   0.83458355   -796.86669            1    -797.0138 
2589 1.3363425e-05 7.7759061e-06 7.747917e-11 4.1366103e-11 1.3345222e-05   0.52986382   0.52986382     3.393776            0    -797.0138   0.12593648    -796.9387   0.25187327   -796.73532   0.37781113   -796.54792    0.5037505   -796.48393   0.66916718   -796.59868   0.83458356   -796.86669            1    -797.0138 
2590 1.3184645e-05 7.6620784e-06 1.8201543e-10 9.4252977e-11 1.3154065e-05   0.52986383   0.52986383     3.393776            0    -797.0138    0.1259365    -796.9387    0.2518733   -796.73532   0.37781116   -796.54792   0.50375053   -796.48393   0.66916719   -796.59868   0.83458356   -796.86669            1    -797.0138 
2591 1.3024709e-05 7.5461474e-06 4.6174425e-10 2.3229725e-10 1.2958222e-05   0.52986383   0.52986383    3.3937759            0    -797.0138   0.12593651    -796.9387   0.25187333   -796.73532    0.3778112   -796.54792   0.50375056   -796.48393    0.6691672   -796.59868   0.83458357   -796.86669            1    -797.0138 
2592 1.3063837e-05 7.4253189e-06 1.235948e-09 6.0596888e-10  1.27627e-05   0.52986384   0.52986384    3.3937759            0    -797.0138   0.12593652    -796.9387   0.25187336   -796.73532   0.37781124   -796.54792   0.50375058   -796.48393   0.66916722   -796.59868   0.83458358   -796.86669            1    -797.0138 
2593 1.4624791e-05 7.3152663e-06 3.2542411e-09 1.5589642e-09 1.2605805e-05   0.52986384   0.52986384    3.3937758            0    -797.0138   0.12593654    -796.9387   0.25187338   -796.73532   0.37781127   -796.54792   0.50375061   -796.48393   0.66916723   -796.59868   0.83458358   -796.86669            1    -797.0138 
2594 1.9676519e-05 7.226221e-06 4.9403546e-09 2.308827e-09 1.2544345e-05   0.52986385   0.52986385    3.3937758            0    -797.0138   0.12593655    -796.9387    0.2518734   -796.73532    0.3778113   -796.54792   0.50375063   -796.48393   0.66916724   -796.59868   0.83458359   -796.86669            1    -797.0138 
2595 1.3004835e-05 7.2103485e-06 1.7004433e-09 8.1541958e-10 1.2407515e-05   0.52986385   0.52986385    3.3937758            0    -797.0138   0.12593655    -796.9387   0.25187341   -796.73532    0.3778113   -796.54792   0.50375063   -796.48393   0.66916724   -796.59868   0.83458359   -796.86669            1    -797.0138 
2596 1.2416196e-05 7.185281e-06 2.1801275e-10 1.1658732e-10 1.2350577e-05   0.52986385   0.52986385    3.3937758            0    -797.0138   0.12593655    -796.9387   0.25187342   -796.73532   0.37781131   -796.54792   0.50375064   -796.48393   0.66916725   -796.59868   0.83458359   -796.86669            1    -797.0138 
2597 1.2362777e-05 7.1553414e-06 1.7165968e-11 1.0415646e-11 1.2299668e-05   0.52986385   0.52986385    3.3937757            0    -797.0138   0.12593656    -796.9387   0.25187342   -796.73532   0.37781132   -796.54792   0.50375064   -796.48393   0.66916725   -796.59868   0.83458359   -796.86669            1    -797.0138 
2598 1.2309225e-05 7.1222261e-06 1.5095177e-11 7.6985038e-12 1.2243821e-05   0.52986385   0.52986385    3.3937757            0    -797.0138   0.12593656    -796.9387   0.25187343   -796.73532   0.37781133   -796.54792   0.50375065   -796.48393   0.66916725   -796.59868   0.83458359   -796.86669            1    -797.0138 
2599 1.2250851e-05 7.0861468e-06 1.5027095e-11 7.6519208e-12 1.218296e-05   0.52986385   0.52986385    3.3937757            0    -797.0138   0.12593657    -796.9387   0.25187344   -796.73532   0.37781134   -796.54792   0.50375066   -796.48393   0.66916726   -796.59868    0.8345836   -796.86669            1    -797.0138 
2600 1.2187675e-05 7.0471127e-06 1.4946374e-11 7.6260251e-12 1.211711e-05   0.52986385   0.52986385    3.3937757            0    -797.0138   0.12593657    -796.9387   0.25187345   -796.73532   0.37781136   -796.54792   0.50375067   -796.48393   0.66916726   -796.59868    0.8345836   -796.86669            1    -797.0138 
2601 1.2119718e-05 7.0051413e-06 1.4878219e-11 7.5875968e-12 1.2046296e-05   0.52986386   0.52986386    3.3937757            0    -797.0138   0.12593658    -796.9387   0.25187346   -796.73532   0.37781137   -796.54792   0.50375068   -796.48393   0.66916727   -796.59868    0.8345836   -796.86669            1    -797.0138 
2602 1.2047003e-05 6.9602501e-06 1.4805744e-11 7.5428598e-12 1.1970547e-05   0.52986386   0.52986386    3.3937757            0    -797.0138   0.12593658    -796.9387   0.25187347   -796.73532   0.37781138   -796.54792   0.50375069   -796.48393   0.66916727   -796.59868    0.8345836   -796.86669            1    -797.0138 
2603 1.1969554e-05 6.9124585e-06 1.4711872e-11 7.505431e-12 1.1889893e-05   0.52986386   0.52986386    3.3937756            0    -797.0138   0.12593659    -796.9387   0.25187349   -796.73532    0.3778114   -796.54792    0.5037507   -796.48393   0.66916728   -796.59868   0.83458361   -796.86669            1    -797.0138 
2604 1.1887398e-05 6.8617871e-06 1.4628357e-11 7.4581382e-12 1.1804368e-05   0.52986386   0.52986386    3.3937756            0    -797.0138   0.12593659    -796.9387    0.2518735   -796.73532   0.37781141   -796.54792   0.50375071   -796.48393   0.66916728   -796.59868   0.83458361   -796.86669            1    -797.0138 
2605 1.1800563e-05 6.8082576e-06 1.4529192e-11 7.4065092e-12 1.1714006e-05   0.52986386   0.52986386    3.3937756            0    -797.0138    0.1259366    -796.9387   0.25187351   -796.73532   0.37781143   -796.54792   0.50375072   -796.48393   0.66916729   -796.59868   0.83458361   -796.86669            1    -797.0138 
2606 1.1709079e-05 6.7518935e-06 1.4428169e-11 7.3547535e-12 1.1618844e-05   0.52986387   0.52986387    3.3937756            0    -797.0138   0.12593661    -796.9387   0.25187353   -796.73532   0.37781145   -796.54792   0.50375074   -796.48393    0.6691673   -796.59868   0.83458362   -796.86669            1    -797.0138 
2607 1.1612977e-05 6.6927191e-06 1.4324346e-11 7.2990594e-12 1.151892e-05   0.52986387   0.52986387    3.3937755            0    -797.0138   0.12593662    -796.9387   0.25187355   -796.73532   0.37781147   -796.54792   0.50375075   -796.48393    0.6691673   -796.59868   0.83458362   -796.86669            1    -797.0138 
2608 1.151229e-05 6.6307604e-06 1.4223284e-11 7.2703129e-12 1.1414277e-05   0.52986387   0.52986387    3.3937755            0    -797.0138   0.12593662    -796.9387   0.25187356   -796.73532   0.37781149   -796.54792   0.50375076   -796.48393   0.66916731   -796.59868   0.83458362   -796.86669            1    -797.0138 
2609 1.1407052e-05 6.5660446e-06 1.4111789e-11 7.232793e-12 1.1304957e-05   0.52986387   0.52986387    3.3937755            0    -797.0138   0.12593663    -796.9387   0.25187358   -796.73532   0.37781151   -796.54792   0.50375078   -796.48393   0.66916732   -796.59868   0.83458363   -796.86669            1    -797.0138 
2610 1.1297301e-05 6.4986001e-06 1.4021968e-11 7.2437383e-12 1.1191005e-05   0.52986388   0.52986388    3.3937754            0    -797.0138   0.12593664    -796.9387    0.2518736   -796.73532   0.37781153   -796.54792   0.50375079   -796.48393   0.66916733   -796.59868   0.83458363   -796.86669            1    -797.0138 
2611 1.1183075e-05 6.4284568e-06 1.3911516e-11 7.2715257e-12 1.1072469e-05   0.52986388   0.52986388    3.3937754            0    -797.0138   0.12593665    -796.9387   0.25187362   -796.73532   0.37781155   -796.54792   0.50375081   -796.48393   0.66916734   -796.59868   0.83458364   -796.86669            1    -797.0138 
2612 1.1064412e-05 6.3556456e-06 1.3889981e-11 7.4778936e-12 1.0949398e-05   0.52986388   0.52986388    3.3937754            0    -797.0138   0.12593666    -796.9387   0.25187364   -796.73532   0.37781158   -796.54792   0.50375083   -796.48393   0.66916734   -796.59868   0.83458364   -796.86669            1    -797.0138 
2613 1.0941355e-05 6.2801991e-06 1.4073839e-11 8.160427e-12 1.0821844e-05   0.52986389   0.52986389    3.3937753            0    -797.0138   0.12593667    -796.9387   0.25187366   -796.73532    0.3778116   -796.54792   0.50375084   -796.48393   0.66916735   -796.59868   0.83458365   -796.86669            1    -797.0138 
2614 1.0813946e-05 6.2021503e-06 1.4947909e-11 1.0242404e-11 1.068986e-05   0.52986389   0.52986389    3.3937753            0    -797.0138   0.12593668    -796.9387   0.25187368   -796.73532   0.37781163   -796.54792   0.50375086   -796.48393   0.66916736   -796.59868   0.83458365   -796.86669            1    -797.0138 
2615 1.0682229e-05 6.1215354e-06 1.8397814e-11 1.5935839e-11 1.0553501e-05   0.52986389   0.52986389    3.3937753            0    -797.0138   0.12593669    -796.9387    0.2518737   -796.73532   0.37781166   -796.54792   0.50375088   -796.48393   0.66916737   -796.59868   0.83458366   -796.86669            1    -797.0138 
2616 1.0546252e-05 6.0383878e-06 2.9608805e-11 2.9995683e-11 1.0412825e-05    0.5298639    0.5298639    3.3937752            0    -797.0138   0.12593671    -796.9387   0.25187373   -796.73532   0.37781168   -796.54792    0.5037509   -796.48393   0.66916738   -796.59868   0.83458366   -796.86669            1    -797.0138 
2617 1.040606e-05 5.9527511e-06 6.0844442e-11 6.3896944e-11 1.0267892e-05    0.5298639    0.5298639    3.3937752            0    -797.0138   0.12593672    -796.9387   0.25187375   -796.73532   0.37781171   -796.54792   0.50375092   -796.48393   0.66916739   -796.59868   0.83458367   -796.86669            1    -797.0138 
2618 1.026171e-05 5.8646484e-06 1.4327527e-10 1.4772713e-10 1.0118761e-05    0.5298639    0.5298639    3.3937752            0    -797.0138   0.12593673    -796.9387   0.25187377   -796.73532   0.37781174   -796.54792   0.50375094   -796.48393   0.66916741   -796.59868   0.83458367   -796.86669            1    -797.0138 
2619 1.0113262e-05 5.7741606e-06 3.6649376e-10 3.6520924e-10 9.9654993e-06   0.52986391   0.52986391    3.3937751            0    -797.0138   0.12593674    -796.9387    0.2518738   -796.73532   0.37781177   -796.54792   0.50375096   -796.48393   0.66916742   -796.59868   0.83458368   -796.86669            1    -797.0138 
2620 9.9610176e-06 5.6812148e-06 1.0018956e-09 9.6142965e-10 9.8081776e-06   0.52986391   0.52986391    3.3937751            0    -797.0138   0.12593676    -796.9387   0.25187383   -796.73532    0.3778118   -796.54792   0.50375098   -796.48393   0.66916743   -796.59868   0.83458368   -796.86669            1    -797.0138 
2621 9.8070179e-06 5.5861991e-06 2.9109482e-09 2.6881736e-09 9.6469409e-06   0.52986392   0.52986392     3.393775            0    -797.0138   0.12593677    -796.9387   0.25187386   -796.73532   0.37781184   -796.54792     0.503751   -796.48393   0.66916744   -796.59868   0.83458369   -796.86669            1    -797.0138 
2622 9.6750079e-06 5.4881614e-06 8.9567996e-09 7.9615137e-09 9.4826935e-06   0.52986392   0.52986392     3.393775            0    -797.0138   0.12593679    -796.9387   0.25187388   -796.73532   0.37781187   -796.54792   0.50375103   -796.48393   0.66916745   -796.59868    0.8345837   -796.86669            1    -797.0138 
2623 9.8368295e-06 5.3913536e-06 2.8854126e-08 2.4706684e-08 9.3254058e-06   0.52986393   0.52986393    3.3937749            0    -797.0138    0.1259368    -796.9387   0.25187391   -796.73532   0.37781191   -796.54792   0.50375105   -796.48393   0.66916746   -796.59868    0.8345837   -796.86669            1    -797.0138 
2624 1.3806602e-05 5.2925579e-06 8.7013393e-08 7.1791948e-08 9.2722652e-06   0.52986393   0.52986393    3.3937749            0    -797.0138   0.12593682    -796.9387   0.25187394   -796.73532   0.37781194   -796.54792   0.50375107   -796.48393   0.66916748   -796.59868   0.83458371   -796.86669            1    -797.0138 
2625 1.2716581e-05 5.2610393e-06 7.1565824e-08 5.5623649e-08 9.1787448e-06   0.52986393   0.52986393    3.3937749            0    -797.0138   0.12593682    -796.9387   0.25187395   -796.73532   0.37781195   -796.54792   0.50375108   -796.48393   0.66916748   -796.59868   0.83458371   -796.86669            1    -797.0138 
2626 1.0178601e-05 5.2500379e-06 4.2321856e-08 3.345506e-08 9.1030889e-06   0.52986393   0.52986393    3.3937749            0    -797.0138   0.12593682    -796.9387   0.25187396   -796.73532   0.37781196   -796.54792   0.50375108   -796.48393   0.66916748   -796.59868   0.83458371   -796.86669            1    -797.0138 
