LAMMPS (12 Dec 2018)
Processor partition = 3
units         metal
atom_style    atomic
neighbor      1.0 bin
neigh_modify  every 1 delay 0 check yes

boundary        p p p
atom_modify map array sort 0 0.0
variable	u uloop 8

read_data   initial.lammps
  orthogonal box = (0 0 0) to (10.0025 12.3537 10.615)
  2 by 4 by 3 MPI processor grid
  reading atoms ...
  127 atoms
pair_style  hybrid/overlay nnp3v nnp3v_vf
pair_coeff  * * nnp3v lammps-force.nnp Li P O
Reading potential file lammps-force.nnp with DATE: 20201105
pair_coeff  * * nnp3v_vf lammps_rot.nnp Li P O
Reading potential file lammps_rot.nnp with DATE: 20211226
min_style   quickmin
minimize    1.0e-6 1.0e-4 1000 10000
Neighbor list info ...
  update every 1 steps, delay 0 steps, check yes
  max neighbors/atom: 2000, page size: 100000
  master list distance cutoff = 8
  ghost atom cutoff = 8
  binsize = 4, bins = 3 4 3
  2 neighbor lists, perpetual/occasional/extra = 2 0 0
  (1) pair nnp3v, perpetual
      attributes: full, newton on
      pair build: full/bin/atomonly
      stencil: full/bin/3d
      bin: standard
  (2) pair nnp3v_vf, perpetual, copy from (1)
      attributes: full, newton on
      pair build: copy
      stencil: none
      bin: none
Per MPI rank memory allocation (min/avg/max) = 3.111 | 3.226 | 3.362 Mbytes
Step Temp E_pair E_mol TotEng Press 
       0            0   -796.79482            0   -796.79482    13324.103 
      24   0.66844098   -796.99042            0   -796.97954    13893.519 
Loop time of 14.5354 on 24 procs for 24 steps with 127 atoms

98.1% CPU use with 24 MPI tasks x no OpenMP threads

Minimization stats:
  Stopping criterion = energy tolerance
  Energy initial, next-to-last, final = 
        -796.794816724     -796.990398619     -796.990424995
  Force two-norm initial, final = 1.98977 0.177561
  Force max component initial, final = 0.330078 0.036579
  Final line search alpha, max atom move = 0 0
  Iterations, force evaluations = 24 24

MPI task timing breakdown:
Section |  min time  |  avg time  |  max time  |%varavg| %total
---------------------------------------------------------------
Pair    | 6.051      | 10.74      | 14.532     |  77.5 | 73.89
Neigh   | 0          | 0          | 0          |   0.0 |  0.00
Comm    | 0.0018239  | 3.794      | 8.4831     | 130.4 | 26.10
Output  | 0          | 0          | 0          |   0.0 |  0.00
Modify  | 0          | 0          | 0          |   0.0 |  0.00
Other   |            | 0.001233   |            |       |  0.01

Nlocal:    5.29167 ave 7 max 3 min
Histogram: 4 0 0 0 0 9 0 7 0 4
Nghost:    759.125 ave 797 max 714 min
Histogram: 7 1 0 0 0 2 6 0 0 8
Neighs:    0 ave 0 max 0 min
Histogram: 24 0 0 0 0 0 0 0 0 0
FullNghs:  1068 ave 1413 max 614 min
Histogram: 4 0 0 0 5 4 0 7 0 4

Total # of neighbors = 25632
Ave neighs/atom = 201.827
Neighbor list builds = 0
Dangerous builds = 0

reset_timestep	0

#timestep   0.001
#velocity   all create 1000 87287

dump   1 all atom 1 dump.neb.$u
dump   1 all atom 1 dump.neb.4
fix    2 all neb 1.0 parallel neigh
dump   2 all atom 1 test.dump

thermo          1
neb 0.00000000001 0.0 10000 5000 1 final final.lammps
Per MPI rank memory allocation (min/avg/max) = 5.112 | 5.226 | 5.362 Mbytes
Step Temp E_pair E_mol TotEng Press 
       0            0   -794.83647            0   -794.83647    16486.614 
       1    4.6670604   -794.83647            0   -794.76046    16548.511 
       2    18.305197   -794.97238            0   -794.67425    16625.857 
       3     38.99137   -795.20798            0   -794.57293     16745.48 
       4    61.027786   -795.47926            0   -794.48531    16907.161 
       5     79.11254   -795.72914            0   -794.44065    17059.607 
       6    90.332164    -795.9287            0   -794.45748    17078.873 
       7    90.913714    -796.0767            0   -794.59601    16793.061 
       8    83.198737   -796.18577            0   -794.83073    16244.998 
       9    78.339893   -796.26622            0   -794.99031    15780.118 
      10    71.524484   -796.32384            0   -795.15894    15505.786 
      11    62.534055   -796.36481            0   -795.34633    15327.028 
      12    56.740321   -796.39061            0    -795.4665    15217.417 
      13    44.370321   -796.39691            0   -795.67426    15118.141 
      14  0.029240926   -796.39691            0   -796.39643    14530.065 
      15   0.13094121   -796.39786            0   -796.39573    14527.701 
      16   0.30307106   -796.39964            0   -796.39471    14522.991 
      17   0.52139722   -796.40196            0   -796.39347    14516.666 
      18   0.74214175   -796.40446            0   -796.39237    14509.728 
      19   0.89173508   -796.40678            0   -796.39225    14503.139 
      20   0.87062155   -796.40878            0    -796.3946     14497.44 
      21   0.71253054   -796.41069            0   -796.39908    14493.744 
      22   0.68393074   -796.41277            0   -796.40163    14494.328 
      23   0.79230052   -796.41508            0   -796.40217    14497.789 
      24    0.9377375   -796.41759            0   -796.40231    14501.993 
      25    1.0961512   -796.42025            0    -796.4024    14506.337 
      26    1.2640631   -796.42306            0   -796.40247    14510.787 
      27    1.4402796   -796.42598            0   -796.40252    14515.419 
      28    1.6239491     -796.429            0   -796.40255    14520.264 
      29    1.8142109    -796.4321            0   -796.40255    14525.314 
      30    2.0101749   -796.43527            0   -796.40253    14530.555 
      31    2.2109155   -796.43848            0   -796.40247    14535.948 
      32    2.4154779   -796.44172            0   -796.40238    14541.446 
      33     2.622854   -796.44497            0   -796.40225    14546.995 
      34    2.8320019   -796.44823            0    -796.4021    14552.534 
      35     3.041812   -796.45148            0   -796.40194    14558.008 
      36    3.2511596   -796.45471            0   -796.40176    14563.372 
      37     3.458912   -796.45792            0   -796.40158    14568.545 
      38    3.6639021   -796.46109            0   -796.40141    14573.485 
      39    3.8650253   -796.46423            0   -796.40128     14578.12 
      40    4.0610731   -796.46729            0   -796.40115    14582.451 
      41    4.2512981   -796.47029            0   -796.40105    14586.344 
      42    4.4338952    -796.4732            0   -796.40098    14590.097 
      43    4.6109823   -796.47602            0   -796.40092    14592.391 
      44    4.7761863   -796.47873            0   -796.40095    14598.907 
      45     5.090094   -796.48103            0   -796.39813    14585.253 
      46    3.2811363   -796.48168            0   -796.42824     14599.29 
      47  0.002040148   -796.48168            0   -796.48164    14555.801 
      48 0.0094413024   -796.48175            0    -796.4816    14554.543 
      49  0.022049223    -796.4819            0   -796.48154    14552.054 
      50  0.037883346   -796.48209            0   -796.48148    14548.505 
      51  0.053271313   -796.48231            0   -796.48145    14544.235 
      52  0.062586216   -796.48254            0   -796.48152    14539.839 
      53  0.061898726   -796.48277            0   -796.48176    14536.209 
      54  0.059471683     -796.483            0   -796.48203    14534.083 
      55   0.06611054   -796.48326            0   -796.48219    14533.311 
      56   0.07913177   -796.48355            0   -796.48226    14533.227 
      57  0.094581178   -796.48387            0   -796.48233    14533.361 
      58   0.11140373   -796.48421            0    -796.4824    14533.531 
      59   0.12942658   -796.48458            0   -796.48247    14533.694 
      60   0.14858079   -796.48497            0   -796.48255    14533.847 
      61   0.16880272   -796.48538            0   -796.48263    14533.992 
      62   0.19002666   -796.48582            0   -796.48273    14534.127 
      63   0.21218361   -796.48628            0   -796.48282    14534.251 
      64    0.2352017   -796.48676            0   -796.48293    14534.363 
      65   0.25900649   -796.48725            0   -796.48303     14534.46 
      66   0.28352142   -796.48777            0   -796.48315    14534.539 
      67   0.30866747   -796.48829            0   -796.48327    14534.596 
      68    0.3343643   -796.48884            0    -796.4834    14534.629 
      69   0.36053038    -796.4894            0   -796.48353    14534.634 
      70   0.38708289   -796.48998            0   -796.48367    14534.607 
      71   0.41393726   -796.49056            0   -796.48382    14534.544 
      72   0.44101133   -796.49115            0   -796.48396    14534.442 
      73   0.46821897   -796.49174            0   -796.48411    14534.294 
      74   0.49547668   -796.49234            0   -796.48427    14534.097 
      75   0.52269834   -796.49294            0   -796.48443     14533.85 
      76   0.54980269   -796.49354            0   -796.48459    14533.546 
      77   0.57670397   -796.49415            0   -796.48475    14533.185 
      78   0.60332199   -796.49475            0   -796.48492    14532.758 
      79   0.62957931   -796.49535            0    -796.4851    14532.272 
      80    0.6553528   -796.49595            0   -796.48527    14531.686 
      81   0.68083637   -796.49653            0   -796.48545    14531.122 
      82   0.70539028   -796.49712            0   -796.48563     14530.08 
      83   0.74406784   -796.49764            0   -796.48552    14530.731 
      84   0.89103405   -796.49808            0   -796.48356    14527.079 
      85   0.19807712   -796.49822            0   -796.49499    14520.623 
      86  0.039854633   -796.49832            0   -796.49767    14518.859 
      87  0.038263759   -796.49843            0   -796.49781    14518.489 
      88  0.043357518   -796.49855            0   -796.49784    14518.294 
      89  0.048754612   -796.49867            0   -796.49788    14518.025 
      90  0.054456222   -796.49881            0   -796.49792    14517.749 
      91  0.060382345   -796.49894            0   -796.49796     14517.44 
      92  0.066545135   -796.49909            0     -796.498    14517.114 
      93  0.072910447   -796.49923            0   -796.49805     14516.76 
      94  0.079475989   -796.49939            0   -796.49809    14516.387 
      95  0.086212144   -796.49954            0   -796.49814    14515.983 
      96  0.093115106   -796.49971            0   -796.49819     14515.56 
      97   0.10015142   -796.49987            0   -796.49824    14515.102 
      98   0.10732428   -796.50004            0   -796.49829    14514.627 
      99   0.11458448   -796.50021            0   -796.49834    14514.107 
     100   0.12196423   -796.50038            0    -796.4984    14513.583 
     101   0.12935669   -796.50056            0   -796.49845     14512.98 
     102   0.13691837   -796.50074            0   -796.49851     14512.44 
     103   0.14429557   -796.50092            0   -796.49857    14511.664 
     104   0.15241687    -796.5011            0   -796.49861    14511.321 
     105   0.16030889   -796.50128            0   -796.49867     14509.83 
     106    0.1791202   -796.50143            0   -796.49851    14511.323 
     107    0.1981532   -796.50158            0   -796.49835    14506.811 
     108  0.066561599   -796.50163            0   -796.50055    14507.588 
     109   0.01448547   -796.50168            0   -796.50144    14506.517 
     110  0.016581131   -796.50173            0   -796.50146    14506.307 
     111  0.018931378   -796.50179            0   -796.50148    14506.052 
     112  0.021425538   -796.50185            0    -796.5015     14505.78 
     113  0.024046785   -796.50191            0   -796.50152    14505.485 
     114  0.026791978   -796.50198            0   -796.50154    14505.171 
     115  0.029653706   -796.50205            0   -796.50156    14504.835 
     116  0.032626244   -796.50212            0   -796.50159    14504.479 
     117  0.035702434   -796.50219            0   -796.50161    14504.102 
     118  0.038875788   -796.50227            0   -796.50164    14503.703 
     119  0.042138835   -796.50235            0   -796.50166    14503.283 
     120  0.045484719   -796.50243            0   -796.50169    14502.842 
     121    0.0489055   -796.50251            0   -796.50172    14502.378 
     122  0.052394285    -796.5026            0   -796.50175     14501.89 
     123  0.055942405   -796.50269            0   -796.50177    14501.379 
     124  0.059543687   -796.50277            0    -796.5018    14500.846 
     125  0.063187345   -796.50286            0   -796.50183    14500.288 
     126   0.06687103   -796.50295            0   -796.50186    14499.709 
     127  0.070575206   -796.50304            0   -796.50189    14499.098 
     128  0.074317746   -796.50313            0   -796.50192    14498.483 
     129    0.0780308   -796.50323            0   -796.50196    14497.793 
     130  0.081870508   -796.50332            0   -796.50198    14497.208 
     131  0.085489852   -796.50341            0   -796.50202    14496.248 
     132   0.09079618   -796.50349            0   -796.50202    14496.299 
     133  0.098564368   -796.50358            0   -796.50198    14493.622 
     134  0.069265267    -796.5036            0   -796.50247    14495.706 
     135 0.0067561304   -796.50363            0   -796.50352    14493.921 
     136 0.0044323076   -796.50365            0   -796.50357    14493.352 
     137 0.0043699696   -796.50366            0   -796.50359    14493.091 
     138 0.0051631533   -796.50368            0    -796.5036    14492.908 
     139 0.0060724181    -796.5037            0   -796.50361     14492.72 
     140 0.0070483425   -796.50373            0   -796.50361    14492.515 
     141 0.0080897849   -796.50375            0   -796.50362    14492.293 
     142 0.0091948077   -796.50378            0   -796.50363    14492.055 
     143  0.010361266    -796.5038            0   -796.50363      14491.8 
     144  0.011586906   -796.50383            0   -796.50364    14491.528 
     145  0.012869356   -796.50386            0   -796.50365     14491.24 
     146  0.014206136   -796.50389            0   -796.50366    14490.935 
     147  0.015594667   -796.50392            0   -796.50367    14490.614 
     148  0.017032271   -796.50396            0   -796.50368    14490.275 
     149  0.018516184   -796.50399            0   -796.50369     14489.92 
     150   0.02004356   -796.50402            0    -796.5037    14489.548 
     151  0.021611483   -796.50406            0   -796.50371    14489.159 
     152  0.023216968    -796.5041            0   -796.50372    14488.753 
     153  0.024856967   -796.50413            0   -796.50373     14488.33 
     154   0.02652839   -796.50417            0   -796.50374     14487.89 
     155  0.028228099   -796.50421            0   -796.50375    14487.433 
     156  0.029952936   -796.50425            0   -796.50376    14486.959 
     157  0.031699711   -796.50428            0   -796.50377    14486.467 
     158  0.033465207   -796.50432            0   -796.50378    14485.959 
     159  0.035246181   -796.50436            0   -796.50379    14485.432 
     160  0.037039404    -796.5044            0    -796.5038    14484.889 
     161  0.038841662   -796.50444            0   -796.50381    14484.329 
     162  0.040649861   -796.50448            0   -796.50382    14483.752 
     163  0.042460399   -796.50452            0   -796.50383    14483.157 
     164   0.04427161   -796.50456            0   -796.50384    14482.548 
     165  0.046073518   -796.50459            0   -796.50384    14481.911 
     166  0.047872636   -796.50463            0   -796.50385    14481.297 
     167   0.04944703   -796.50467            0   -796.50386    14480.524 
     168   0.04936481    -796.5047            0   -796.50389    14480.251 
     169  0.030956252   -796.50473            0   -796.50422    14478.439 
     170 0.00080523991   -796.50473            0   -796.50471    14478.247 
     171 0.0010307716   -796.50473            0   -796.50471     14478.43 
     172 0.0012279276   -796.50473            0   -796.50471    14478.512 
     173 0.0014427488   -796.50474            0   -796.50471    14478.476 
     174 0.0017377482   -796.50474            0   -796.50471    14478.375 
     175 0.0020785403   -796.50475            0   -796.50471    14478.247 
     176  0.002450267   -796.50476            0   -796.50472    14478.105 
     177 0.0028506465   -796.50476            0   -796.50472     14477.95 
     178 0.0032788806   -796.50477            0   -796.50472    14477.783 
     179 0.0037342767   -796.50478            0   -796.50472    14477.604 
     180 0.0042160946   -796.50479            0   -796.50472    14477.413 
     181 0.0047235463   -796.50479            0   -796.50472    14477.209 
     182 0.0052558023    -796.5048            0   -796.50472    14476.994 
     183  0.005811997   -796.50481            0   -796.50472    14476.766 
     184 0.0063912258   -796.50482            0   -796.50472    14476.526 
     185 0.0069925479   -796.50483            0   -796.50472    14476.275 
     186  0.007614989   -796.50484            0   -796.50472    14476.011 
     187 0.0082575441   -796.50485            0   -796.50472    14475.735 
     188 0.0089191806   -796.50486            0   -796.50472    14475.448 
     189 0.0095988362   -796.50487            0   -796.50472    14475.148 
     190  0.010295427   -796.50488            0   -796.50472    14474.837 
     191  0.011007847   -796.50489            0   -796.50472    14474.514 
     192  0.011734972   -796.50491            0   -796.50471     14474.18 
     193  0.012475661   -796.50492            0   -796.50471    14473.833 
     194  0.013228759   -796.50493            0   -796.50471    14473.475 
     195  0.013993098   -796.50494            0   -796.50471    14473.106 
     196  0.014767507   -796.50495            0   -796.50471    14472.725 
     197  0.015550883   -796.50496            0    -796.5047    14472.333 
     198  0.016342038   -796.50497            0    -796.5047     14471.93 
     199  0.017139752   -796.50498            0    -796.5047    14471.516 
     200  0.017942915   -796.50499            0    -796.5047    14471.091 
     201  0.018750046     -796.505            0   -796.50469    14470.654 
     202  0.019560737   -796.50501            0   -796.50469    14470.211 
     203  0.020369275   -796.50502            0   -796.50469    14469.743 
     204  0.021168798   -796.50503            0   -796.50468    14469.315 
     205  0.021700225   -796.50504            0   -796.50468    14468.694 
     206  0.019446643   -796.50505            0   -796.50473    14468.704 
     207 0.0045164987   -796.50505            0   -796.50497    14467.665 
     208 0.00026328192   -796.50505            0   -796.50504    14467.684 
     209 0.00036559632   -796.50505            0   -796.50504    14467.722 
     210 0.00047720038   -796.50505            0   -796.50504    14467.709 
     211 0.00060072468   -796.50505            0   -796.50504    14467.656 
     212 0.00073922158   -796.50505            0   -796.50504    14467.579 
     213 0.00089221883   -796.50505            0   -796.50504    14467.488 
     214 0.0010591094   -796.50506            0   -796.50504    14467.388 
     215 0.0012395499   -796.50506            0   -796.50504    14467.278 
     216 0.0014332668   -796.50506            0   -796.50504     14467.16 
     217 0.0016399857   -796.50506            0   -796.50503    14467.033 
     218 0.0018594141   -796.50506            0   -796.50503    14466.897 
     219 0.0020912408   -796.50506            0   -796.50503    14466.753 
     220 0.0023351371   -796.50507            0   -796.50503    14466.599 
     221 0.0025907572   -796.50507            0   -796.50503    14466.437 
     222 0.0028577391   -796.50507            0   -796.50502    14466.267 
     223  0.003135705   -796.50507            0   -796.50502    14466.087 
     224 0.0034242625   -796.50507            0   -796.50502    14465.899 
     225 0.0037230051   -796.50507            0   -796.50501    14465.703 
     226 0.0040315129   -796.50508            0   -796.50501    14465.498 
     227  0.004349354   -796.50508            0   -796.50501    14465.284 
     228 0.0046760848   -796.50508            0     -796.505    14465.063 
     229 0.0050112508   -796.50508            0     -796.505    14464.833 
     230 0.0053543889   -796.50508            0   -796.50499    14464.594 
     231 0.0057050254   -796.50508            0   -796.50499    14464.348 
     232 0.0060626743   -796.50508            0   -796.50498    14464.093 
     233 0.0064268489   -796.50508            0   -796.50498     14463.83 
     234 0.0067970558   -796.50508            0   -796.50497    14463.559 
     235  0.007172794   -796.50508            0   -796.50497    14463.281 
     236 0.0075535662   -796.50508            0   -796.50496    14462.994 
     237 0.0079388627   -796.50508            0   -796.50495      14462.7 
     238 0.0083281852   -796.50508            0   -796.50495    14462.398 
     239 0.0087209964   -796.50508            0   -796.50494    14462.088 
     240 0.0091168687   -796.50508            0   -796.50493    14461.771 
     241 0.0095150169   -796.50508            0   -796.50492    14461.446 
     242 0.0099156676   -796.50507            0   -796.50491    14461.116 
     243  0.010313749   -796.50507            0    -796.5049     14460.77 
     244  0.010700378   -796.50507            0   -796.50489    14460.449 
     245  0.010772303   -796.50506            0   -796.50489    14460.005 
     246 0.0078227784   -796.50506            0   -796.50493    14459.975 
     247 0.00042688946   -796.50506            0   -796.50505     14459.68 
     248 0.00050596702   -796.50506            0   -796.50505    14459.542 
     249 0.0005573942   -796.50506            0   -796.50505    14459.465 
     250 0.00064953653   -796.50506            0   -796.50505    14459.383 
     251 0.0007482371   -796.50505            0   -796.50504    14459.295 
     252 0.00085343498   -796.50505            0   -796.50504      14459.2 
     253 0.00096498276   -796.50505            0   -796.50504      14459.1 
     254  0.001082742   -796.50505            0   -796.50503    14458.992 
     255 0.0012065616   -796.50505            0   -796.50503    14458.879 
     256 0.0013362845   -796.50505            0   -796.50502    14458.759 
     257 0.0014717452   -796.50504            0   -796.50502    14458.633 
     258 0.0016127683   -796.50504            0   -796.50502      14458.5 
     259 0.0017591743   -796.50504            0   -796.50501    14458.361 
     260 0.0019107799   -796.50504            0     -796.505    14458.216 
     261 0.0020673927   -796.50503            0     -796.505    14458.065 
     262 0.0022288158   -796.50503            0   -796.50499    14457.908 
     263 0.0023948445   -796.50503            0   -796.50499    14457.745 
     264  0.002565271   -796.50502            0   -796.50498    14457.576 
     265   0.00273988   -796.50502            0   -796.50497    14457.402 
     266 0.0029184562   -796.50501            0   -796.50497    14457.221 
     267 0.0031007722   -796.50501            0   -796.50496    14457.035 
     268  0.003286613     -796.505            0   -796.50495    14456.843 
     269  0.003475725     -796.505            0   -796.50494    14456.645 
     270 0.0036679311   -796.50499            0   -796.50493    14456.442 
     271 0.0038628558   -796.50499            0   -796.50493    14456.232 
     272 0.0040605951   -796.50498            0   -796.50492     14456.02 
     273 0.0042597575   -796.50498            0   -796.50491    14455.795 
     274 0.0044614191   -796.50497            0    -796.5049    14455.585 
     275 0.0046432077   -796.50496            0   -796.50489     14455.31 
     276 0.0046973976   -796.50495            0   -796.50488    14455.223 
     277 0.0034865207   -796.50495            0   -796.50489    14454.675 
     278 0.00041846169   -796.50495            0   -796.50494    14454.785 
     279 0.00031716321   -796.50494            0   -796.50494    14454.781 
     280 0.00034995681   -796.50494            0   -796.50494    14454.718 
     281 0.00040599283   -796.50494            0   -796.50493    14454.654 
     282 0.00046590859   -796.50494            0   -796.50493    14454.583 
     283 0.00052967344   -796.50494            0   -796.50493    14454.508 
     284 0.00059719526   -796.50493            0   -796.50492    14454.429 
     285 0.00066839899   -796.50493            0   -796.50492    14454.344 
     286 0.00074319718   -796.50493            0   -796.50491    14454.254 
     287 0.00082150215   -796.50492            0   -796.50491     14454.16 
     288 0.00090321941   -796.50492            0    -796.5049    14454.061 
     289 0.00098825246   -796.50491            0    -796.5049    14453.957 
     290 0.0010764991   -796.50491            0   -796.50489    14453.848 
     291 0.0011678552   -796.50491            0   -796.50489    14453.735 
     292  0.001262211    -796.5049            0   -796.50488    14453.617 
     293 0.0013594563    -796.5049            0   -796.50487    14453.495 
     294 0.0014594735   -796.50489            0   -796.50487    14453.368 
     295  0.001562148   -796.50488            0   -796.50486    14453.236 
     296 0.0016673523   -796.50488            0   -796.50485      14453.1 
     297 0.0017749743   -796.50487            0   -796.50484     14452.96 
     298  0.001884865   -796.50487            0   -796.50484    14452.815 
     299 0.0019969432   -796.50486            0   -796.50483    14452.666 
     300 0.0021109727   -796.50485            0   -796.50482    14452.512 
     301 0.0022270637   -796.50484            0   -796.50481    14452.357 
     302 0.0023444437   -796.50484            0    -796.5048     14452.19 
     303 0.0024644208   -796.50483            0   -796.50479    14452.038 
     304 0.0025812479   -796.50482            0   -796.50478    14451.832 
     305 0.0026978795   -796.50481            0   -796.50477    14451.768 
     306 0.0026609182   -796.50481            0   -796.50476    14451.321 
     307 0.0012923063    -796.5048            0   -796.50478    14451.589 
     308 0.00017597182    -796.5048            0   -796.50479    14451.435 
     309 0.00014379335    -796.5048            0   -796.50479    14451.363 
     310 0.00016522159   -796.50479            0   -796.50479    14451.317 
     311 0.00019578379   -796.50479            0   -796.50479    14451.273 
     312 0.00022893098   -796.50479            0   -796.50479    14451.225 
     313 0.00026453452   -796.50479            0   -796.50478    14451.173 
     314 0.00030255623   -796.50478            0   -796.50478    14451.117 
     315 0.00034295296   -796.50478            0   -796.50477    14451.057 
     316 0.0003856791   -796.50478            0   -796.50477    14450.994 
     317 0.00043068625   -796.50477            0   -796.50477    14450.926 
     318 0.00047792338   -796.50477            0   -796.50476    14450.855 
     319 0.0005273369   -796.50476            0   -796.50476    14450.781 
     320 0.00057887072   -796.50476            0   -796.50475    14450.703 
     321 0.00063246638   -796.50475            0   -796.50474    14450.621 
     322 0.00068806306   -796.50475            0   -796.50474    14450.535 
     323 0.00074559775   -796.50474            0   -796.50473    14450.446 
     324 0.0008050053   -796.50474            0   -796.50473    14450.353 
     325 0.00086621847   -796.50473            0   -796.50472    14450.257 
     326 0.00092916814   -796.50473            0   -796.50471    14450.157 
     327 0.0009937833   -796.50472            0    -796.5047    14450.054 
     328 0.0010599913   -796.50471            0    -796.5047    14449.947 
     329 0.0011277177   -796.50471            0   -796.50469    14449.837 
     330 0.0011968868    -796.5047            0   -796.50468    14449.724 
     331 0.0012674209   -796.50469            0   -796.50467    14449.608 
     332 0.0013392425   -796.50468            0   -796.50466    14449.488 
     333 0.0014122695   -796.50468            0   -796.50465    14449.365 
     334 0.0014864271   -796.50467            0   -796.50464    14449.239 
     335 0.0015616173   -796.50466            0   -796.50463     14449.11 
     336 0.0016378025   -796.50465            0   -796.50462    14448.979 
     337 0.0017147667   -796.50464            0   -796.50461    14448.842 
     338 0.0017928328   -796.50463            0    -796.5046     14448.71 
     339 0.0018705938   -796.50462            0   -796.50459    14448.549 
     340  0.001952912   -796.50461            0   -796.50458    14448.478 
     341 0.0020117568    -796.5046            0   -796.50457    14448.109 
     342 0.0010883951   -796.50459            0   -796.50458    14448.384 
     343 4.4275096e-05   -796.50459            0   -796.50459    14448.297 
     344 4.7636078e-05   -796.50459            0   -796.50459    14448.229 
     345 4.9274395e-05   -796.50459            0   -796.50459    14448.178 
     346 5.688869e-05   -796.50459            0   -796.50459    14448.141 
     347 6.9619479e-05   -796.50459            0   -796.50459    14448.112 
     348 8.4685359e-05   -796.50458            0   -796.50458    14448.083 
     349 0.00010127928   -796.50458            0   -796.50458    14448.053 
     350 0.00011930229   -796.50458            0   -796.50458    14448.019 
     351 0.00013873479   -796.50458            0   -796.50457    14447.983 
     352 0.00015955641   -796.50457            0   -796.50457    14447.943 
     353 0.00018174488   -796.50457            0   -796.50457    14447.902 
     354 0.0002052764   -796.50457            0   -796.50456    14447.857 
     355 0.00023012568   -796.50456            0   -796.50456     14447.81 
     356 0.00025626596   -796.50456            0   -796.50455    14447.759 
     357 0.00028366907   -796.50455            0   -796.50455    14447.707 
     358 0.00031230545   -796.50455            0   -796.50455    14447.651 
     359 0.00034214422   -796.50455            0   -796.50454    14447.593 
     360 0.00037315318   -796.50454            0   -796.50453    14447.532 
     361 0.00040529887   -796.50454            0   -796.50453    14447.469 
     362 0.0004385466   -796.50453            0   -796.50452    14447.403 
     363 0.00047286056   -796.50452            0   -796.50452    14447.335 
     364 0.00050820382   -796.50452            0   -796.50451    14447.264 
     365 0.00054453844   -796.50451            0    -796.5045    14447.191 
     366 0.00058182535    -796.5045            0    -796.5045    14447.115 
     367 0.00062002461    -796.5045            0   -796.50449    14447.037 
     368 0.00065909537   -796.50449            0   -796.50448    14446.956 
     369 0.00069899594   -796.50448            0   -796.50447    14446.873 
     370 0.00073968398   -796.50448            0   -796.50446    14446.788 
     371 0.00078111615   -796.50447            0   -796.50445      14446.7 
     372 0.00082324876   -796.50446            0   -796.50445    14446.611 
     373 0.00086603702   -796.50445            0   -796.50444    14446.519 
     374 0.00090943684   -796.50444            0   -796.50443    14446.425 
     375 0.00095339998   -796.50443            0   -796.50442    14446.329 
     376 0.00099788616   -796.50442            0   -796.50441    14446.231 
     377 0.0010428044   -796.50441            0    -796.5044     14446.13 
     378 0.0010879741    -796.5044            0   -796.50438    14446.031 
     379 0.0011306109   -796.50439            0   -796.50437    14445.917 
     380 0.0011414646   -796.50438            0   -796.50436    14445.853 
     381 0.00082454315   -796.50437            0   -796.50436    14445.645 
     382  5.97719e-05   -796.50437            0   -796.50437    14445.685 
     383 6.2640414e-05   -796.50437            0   -796.50437    14445.687 
     384 6.9265899e-05   -796.50437            0   -796.50436    14445.661 
     385 8.0494832e-05   -796.50436            0   -796.50436    14445.635 
     386 9.253129e-05   -796.50436            0   -796.50436    14445.607 
     387 0.00010535832   -796.50436            0   -796.50436    14445.577 
     388 0.00011896145   -796.50435            0   -796.50435    14445.545 
     389 0.00013332707   -796.50435            0   -796.50435    14445.511 
     390 0.00014844018   -796.50435            0   -796.50434    14445.475 
     391 0.00016428533   -796.50434            0   -796.50434    14445.437 
     392 0.00018084607   -796.50434            0   -796.50433    14445.397 
     393 0.00019810537   -796.50433            0   -796.50433    14445.355 
     394 0.00021604533   -796.50433            0   -796.50432    14445.312 
     395 0.0002346475   -796.50432            0   -796.50432    14445.266 
     396 0.00025389258   -796.50432            0   -796.50431    14445.219 
     397 0.00027376086   -796.50431            0   -796.50431     14445.17 
     398 0.00029423164   -796.50431            0    -796.5043    14445.119 
     399 0.00031528418    -796.5043            0    -796.5043    14445.067 
     400 0.00033689629   -796.50429            0   -796.50429    14445.013 
     401 0.00035904677   -796.50429            0   -796.50428    14444.957 
     402 0.00038171101   -796.50428            0   -796.50427    14444.899 
     403 0.00040486976   -796.50427            0   -796.50427    14444.841 
     404 0.00042849107   -796.50427            0   -796.50426    14444.779 
     405 0.00045257106   -796.50426            0   -796.50425    14444.719 
     406 0.00047704607   -796.50425            0   -796.50424     14444.65 
     407 0.00050208771   -796.50424            0   -796.50423    14444.598 
     408 0.00052812573   -796.50423            0   -796.50423    14444.495 
     409 0.00056049134   -796.50423            0   -796.50422    14444.537 
     410 0.00050149902   -796.50422            0   -796.50421    14444.283 
     411 6.9425272e-05   -796.50422            0   -796.50422    14444.354 
     412 3.8864212e-05   -796.50422            0   -796.50422    14444.377 
     413 3.6362232e-05   -796.50422            0   -796.50421    14444.365 
     414 4.2947296e-05   -796.50421            0   -796.50421    14444.347 
     415 5.0189407e-05   -796.50421            0   -796.50421    14444.327 
     416 5.7969994e-05   -796.50421            0   -796.50421    14444.306 
     417 6.6281386e-05    -796.5042            0    -796.5042    14444.284 
     418 7.5115317e-05    -796.5042            0    -796.5042     14444.26 
     419 8.4462989e-05    -796.5042            0    -796.5042    14444.234 
     420 9.4315071e-05   -796.50419            0   -796.50419    14444.207 
     421 0.00010466172   -796.50419            0   -796.50419    14444.179 
     422 0.00011549257   -796.50419            0   -796.50419    14444.149 
     423 0.00012679678   -796.50418            0   -796.50418    14444.117 
     424 0.00013856303   -796.50418            0   -796.50418    14444.084 
     425 0.00015077953   -796.50417            0   -796.50417     14444.05 
     426 0.00016343404   -796.50417            0   -796.50417    14444.015 
     427 0.00017651389   -796.50416            0   -796.50416    14443.978 
     428 0.00019000599   -796.50416            0   -796.50416    14443.939 
     429 0.00020389687   -796.50415            0   -796.50415      14443.9 
     430 0.00021817265   -796.50415            0   -796.50414    14443.859 
     431 0.00023281912   -796.50414            0   -796.50414    14443.817 
     432 0.00024782169   -796.50413            0   -796.50413    14443.773 
     433 0.00026316547   -796.50413            0   -796.50412    14443.728 
     434 0.00027883527   -796.50412            0   -796.50412    14443.683 
     435 0.00029481558   -796.50411            0   -796.50411    14443.635 
     436 0.00031109076   -796.50411            0    -796.5041    14443.587 
     437 0.00032764447    -796.5041            0   -796.50409    14443.538 
     438 0.00034446189   -796.50409            0   -796.50409    14443.487 
     439 0.00036152376   -796.50408            0   -796.50408    14443.437 
     440 0.00037884666   -796.50408            0   -796.50407     14443.38 
     441 0.00039656007   -796.50407            0   -796.50406    14443.341 
     442 0.00041734373   -796.50406            0   -796.50405    14443.238 
     443 0.00044975699   -796.50405            0   -796.50404    14443.342 
     444 0.00016401869   -796.50405            0   -796.50405    14443.179 
     445 2.3559672e-05   -796.50405            0   -796.50405    14443.195 
     446 2.2509134e-05   -796.50405            0   -796.50405    14443.186 
     447 2.6628845e-05   -796.50404            0   -796.50404    14443.173 
     448 3.1140613e-05   -796.50404            0   -796.50404    14443.159 
     449 3.5990116e-05   -796.50404            0   -796.50404    14443.144 
     450 4.1172635e-05   -796.50404            0   -796.50404    14443.128 
     451 4.6683203e-05   -796.50403            0   -796.50403     14443.11 
     452 5.2516512e-05   -796.50403            0   -796.50403    14443.092 
     453 5.8666934e-05   -796.50403            0   -796.50403    14443.072 
     454 6.5128524e-05   -796.50402            0   -796.50402    14443.052 
     455 7.1895032e-05   -796.50402            0   -796.50402     14443.03 
     456 7.8959904e-05   -796.50402            0   -796.50402    14443.007 
     457  8.63163e-05   -796.50401            0   -796.50401    14442.984 
     458 9.395709e-05   -796.50401            0   -796.50401    14442.959 
     459 0.00010187488     -796.504            0     -796.504    14442.933 
     460 0.00011006199     -796.504            0     -796.504    14442.907 
     461 0.00011851051   -796.50399            0   -796.50399    14442.879 
     462 0.00012721227   -796.50399            0   -796.50399    14442.851 
     463 0.00013615888   -796.50398            0   -796.50398    14442.821 
     464 0.0001453417   -796.50398            0   -796.50398    14442.791 
     465 0.00015475192   -796.50397            0   -796.50397     14442.76 
     466 0.00016438043   -796.50397            0   -796.50396    14442.728 
     467 0.00017421819   -796.50396            0   -796.50396    14442.695 
     468 0.00018425532   -796.50396            0   -796.50395    14442.661 
     469 0.00019448355   -796.50395            0   -796.50395    14442.626 
     470 0.00020488957   -796.50394            0   -796.50394    14442.591 
     471 0.00021547508   -796.50394            0   -796.50393    14442.554 
     472 0.00022620432   -796.50393            0   -796.50392     14442.52 
     473 0.00023726567   -796.50392            0   -796.50392    14442.473 
     474 0.00024930439   -796.50391            0   -796.50391    14442.468 
     475 0.00026945237   -796.50391            0    -796.5039    14442.332 
     476 0.00015133039    -796.5039            0    -796.5039     14442.45 
     477 1.1208313e-05    -796.5039            0    -796.5039    14442.412 
     478 9.3728105e-06    -796.5039            0    -796.5039    14442.388 
     479 9.5988784e-06    -796.5039            0    -796.5039    14442.374 
     480 1.1530153e-05    -796.5039            0    -796.5039    14442.365 
     481 1.392385e-05    -796.5039            0    -796.5039    14442.357 
     482 1.6552954e-05    -796.5039            0    -796.5039    14442.347 
     483 1.9401926e-05   -796.50389            0   -796.50389    14442.337 
     484 2.2467814e-05   -796.50389            0   -796.50389    14442.327 
     485 2.574778e-05   -796.50389            0   -796.50389    14442.315 
     486 2.9238772e-05   -796.50389            0   -796.50389    14442.303 
     487 3.2937533e-05   -796.50388            0   -796.50388     14442.29 
     488 3.6840606e-05   -796.50388            0   -796.50388    14442.276 
     489 4.0944334e-05   -796.50388            0   -796.50388    14442.261 
     490 4.5244869e-05   -796.50387            0   -796.50387    14442.246 
     491 4.9738174e-05   -796.50387            0   -796.50387    14442.229 
     492 5.4420029e-05   -796.50387            0   -796.50387    14442.213 
     493 5.9286039e-05   -796.50386            0   -796.50386    14442.195 
     494 6.4331637e-05   -796.50386            0   -796.50386    14442.177 
     495 6.955208e-05   -796.50386            0   -796.50385    14442.158 
     496 7.4942468e-05   -796.50385            0   -796.50385    14442.138 
     497 8.0497748e-05   -796.50385            0   -796.50385    14442.118 
     498 8.6212715e-05   -796.50384            0   -796.50384    14442.097 
     499 9.2082025e-05   -796.50384            0   -796.50384    14442.075 
     500 9.8100194e-05   -796.50383            0   -796.50383    14442.053 
     501 0.00010426162   -796.50383            0   -796.50383     14442.03 
     502 0.00011056054   -796.50382            0   -796.50382    14442.007 
     503 0.00011699116   -796.50382            0   -796.50381    14441.983 
     504 0.00012354744   -796.50381            0   -796.50381    14441.958 
     505 0.00013022354    -796.5038            0    -796.5038    14441.933 
     506 0.00013701263    -796.5038            0    -796.5038    14441.908 
     507 0.00014391054   -796.50379            0   -796.50379    14441.882 
     508 0.00015090427   -796.50379            0   -796.50378    14441.856 
     509 0.00015801363   -796.50378            0   -796.50378    14441.827 
     510 0.00016518024   -796.50377            0   -796.50377    14441.805 
     511 0.00017318709   -796.50377            0   -796.50376    14441.757 
     512 0.00018565916   -796.50376            0   -796.50376    14441.804 
     513 0.00012355752   -796.50376            0   -796.50375    14441.671 
     514 2.141626e-06   -796.50376            0   -796.50376    14441.682 
     515 3.0115546e-06   -796.50376            0   -796.50376    14441.696 
     516 3.5192968e-06   -796.50375            0   -796.50375    14441.709 
     517 3.7596329e-06   -796.50375            0   -796.50375    14441.716 
     518 4.3001752e-06   -796.50375            0   -796.50375    14441.718 
     519 5.3042783e-06   -796.50375            0   -796.50375    14441.715 
     520 6.5738489e-06   -796.50375            0   -796.50375    14441.711 
     521 8.0010302e-06   -796.50375            0   -796.50375    14441.705 
     522 9.5657895e-06   -796.50375            0   -796.50375    14441.699 
     523 1.1265828e-05   -796.50375            0   -796.50375    14441.693 
     524  1.30997e-05   -796.50374            0   -796.50374    14441.686 
     525 1.5065763e-05   -796.50374            0   -796.50374    14441.678 
     526 1.7162248e-05   -796.50374            0   -796.50374     14441.67 
     527 1.938726e-05   -796.50374            0   -796.50374    14441.661 
     528 2.1738787e-05   -796.50373            0   -796.50373    14441.652 
     529 2.4214694e-05   -796.50373            0   -796.50373    14441.642 
     530 2.6812734e-05   -796.50373            0   -796.50373    14441.632 
     531 2.9530543e-05   -796.50373            0   -796.50373    14441.621 
     532 3.2365647e-05   -796.50372            0   -796.50372     14441.61 
     533 3.5315465e-05   -796.50372            0   -796.50372    14441.598 
     534 3.837731e-05   -796.50372            0   -796.50372    14441.586 
     535 4.1548392e-05   -796.50371            0   -796.50371    14441.574 
     536 4.4825826e-05   -796.50371            0   -796.50371    14441.561 
     537 4.8206627e-05   -796.50371            0   -796.50371    14441.547 
     538 5.1687722e-05    -796.5037            0    -796.5037    14441.533 
     539 5.526595e-05    -796.5037            0    -796.5037    14441.519 
     540 5.8938062e-05   -796.50369            0   -796.50369    14441.504 
     541 6.2700734e-05   -796.50369            0   -796.50369    14441.489 
     542 6.6550559e-05   -796.50368            0   -796.50368    14441.473 
     543 7.0484066e-05   -796.50368            0   -796.50368    14441.458 
     544  7.44977e-05   -796.50368            0   -796.50367    14441.441 
     545 7.8587883e-05   -796.50367            0   -796.50367    14441.425 
     546 8.2750857e-05   -796.50366            0   -796.50366    14441.408 
     547 8.6983178e-05   -796.50366            0   -796.50366    14441.391 
     548 9.1280161e-05   -796.50365            0   -796.50365    14441.373 
     549 9.5641147e-05   -796.50365            0   -796.50365    14441.355 
     550 0.00010005161   -796.50364            0   -796.50364    14441.338 
     551 0.00010455728   -796.50364            0   -796.50363    14441.317 
     552 0.00010911428   -796.50363            0   -796.50363    14441.308 
     553 0.0001162233   -796.50362            0   -796.50362    14441.253 
     554 0.00011562007   -796.50362            0   -796.50362     14441.34 
     555 1.5088761e-06   -796.50362            0   -796.50362    14441.327 
     556 2.3375974e-06   -796.50362            0   -796.50362    14441.312 
     557 2.9682417e-06   -796.50362            0   -796.50362    14441.294 
     558 3.0650263e-06   -796.50362            0   -796.50362    14441.278 
     559 2.8527724e-06   -796.50362            0   -796.50362    14441.266 
     560 3.1065821e-06   -796.50362            0   -796.50362     14441.26 
     561 3.7878004e-06   -796.50362            0   -796.50362    14441.256 
     562 4.6263591e-06   -796.50361            0   -796.50361    14441.252 
     563 5.554489e-06   -796.50361            0   -796.50361    14441.249 
     564 6.5653678e-06   -796.50361            0   -796.50361    14441.245 
     565 7.657817e-06   -796.50361            0   -796.50361     14441.24 
     566 8.8308824e-06   -796.50361            0   -796.50361    14441.235 
     567 1.008354e-05   -796.50361            0   -796.50361     14441.23 
     568 1.141469e-05    -796.5036            0    -796.5036    14441.224 
     569 1.2823162e-05    -796.5036            0    -796.5036    14441.219 
     570 1.4307714e-05    -796.5036            0    -796.5036    14441.212 
     571 1.5867036e-05    -796.5036            0    -796.5036    14441.206 
     572 1.7499748e-05    -796.5036            0    -796.5036    14441.199 
     573 1.9204404e-05   -796.50359            0   -796.50359    14441.192 
     574 2.0979494e-05   -796.50359            0   -796.50359    14441.185 
     575 2.2823443e-05   -796.50359            0   -796.50359    14441.177 
     576 2.4734616e-05   -796.50358            0   -796.50358    14441.169 
     577 2.6711318e-05   -796.50358            0   -796.50358    14441.161 
     578 2.8751795e-05   -796.50358            0   -796.50358    14441.152 
     579 3.085424e-05   -796.50357            0   -796.50357    14441.143 
     580 3.3016788e-05   -796.50357            0   -796.50357    14441.134 
     581 3.5237526e-05   -796.50357            0   -796.50357    14441.125 
     582 3.7514488e-05   -796.50356            0   -796.50356    14441.115 
     583 3.9845669e-05   -796.50356            0   -796.50356    14441.106 
     584 4.2228989e-05   -796.50356            0   -796.50356    14441.096 
     585 4.4662413e-05   -796.50355            0   -796.50355    14441.086 
     586 4.7143616e-05   -796.50355            0   -796.50355    14441.075 
     587 4.9670966e-05   -796.50354            0   -796.50354    14441.065 
     588 5.2240551e-05   -796.50354            0   -796.50354    14441.054 
     589 5.4855849e-05   -796.50353            0   -796.50353    14441.043 
     590 5.7496881e-05   -796.50353            0   -796.50353    14441.033 
     591 6.0252733e-05   -796.50352            0   -796.50352    14441.017 
     592 6.317891e-05   -796.50352            0   -796.50352    14441.022 
     593 6.9755927e-05   -796.50352            0   -796.50351    14440.958 
     594 2.9955107e-05   -796.50351            0   -796.50351    14441.015 
     595 2.3903318e-06   -796.50351            0   -796.50351    14441.001 
     596 2.0886962e-06   -796.50351            0   -796.50351    14440.993 
     597 2.3909024e-06   -796.50351            0   -796.50351     14440.99 
     598 2.9141273e-06   -796.50351            0   -796.50351    14440.988 
     599 3.5050713e-06   -796.50351            0   -796.50351    14440.985 
     600 4.1496796e-06   -796.50351            0   -796.50351    14440.982 
     601 4.8468808e-06   -796.50351            0   -796.50351     14440.98 
     602 5.5960779e-06    -796.5035            0    -796.5035    14440.976 
     603  6.39663e-06    -796.5035            0    -796.5035    14440.973 
     604 7.2478488e-06    -796.5035            0    -796.5035     14440.97 
     605 8.1490004e-06    -796.5035            0    -796.5035    14440.966 
     606 9.0993058e-06    -796.5035            0    -796.5035    14440.962 
     607 1.0097942e-05    -796.5035            0    -796.5035    14440.958 
     608 1.1144042e-05   -796.50349            0   -796.50349    14440.953 
     609 1.2236697e-05   -796.50349            0   -796.50349    14440.949 
     610 1.3374957e-05   -796.50349            0   -796.50349    14440.944 
     611 1.4557829e-05   -796.50349            0   -796.50349    14440.939 
     612 1.5784284e-05   -796.50348            0   -796.50348    14440.934 
     613 1.7053253e-05   -796.50348            0   -796.50348    14440.929 
     614 1.8363628e-05   -796.50348            0   -796.50348    14440.923 
     615 1.9714268e-05   -796.50348            0   -796.50348    14440.918 
     616 2.1103995e-05   -796.50347            0   -796.50347    14440.912 
     617 2.2531598e-05   -796.50347            0   -796.50347    14440.906 
     618 2.3995831e-05   -796.50347            0   -796.50347      14440.9 
     619 2.5495428e-05   -796.50346            0   -796.50346    14440.894 
     620 2.7029056e-05   -796.50346            0   -796.50346    14440.887 
     621 2.8595463e-05   -796.50346            0   -796.50346    14440.881 
     622 3.0193055e-05   -796.50345            0   -796.50345    14440.874 
     623 3.1821153e-05   -796.50345            0   -796.50345    14440.868 
     624 3.347613e-05   -796.50344            0   -796.50344    14440.861 
     625 3.5164295e-05   -796.50344            0   -796.50344    14440.854 
     626 3.6861811e-05   -796.50344            0   -796.50344    14440.848 
     627 3.8714928e-05   -796.50343            0   -796.50343    14440.835 
     628 4.1079141e-05   -796.50343            0   -796.50343    14440.851 
     629 4.3507963e-05   -796.50343            0   -796.50343    14440.785 
     630 1.8199293e-06   -796.50343            0   -796.50343    14440.798 
     631 1.9566657e-06   -796.50342            0   -796.50342    14440.812 
     632 1.6042182e-06   -796.50342            0   -796.50342    14440.821 
     633 1.3998399e-06   -796.50342            0   -796.50342    14440.824 
     634 1.6407694e-06   -796.50342            0   -796.50342    14440.823 
     635 1.9987004e-06   -796.50342            0   -796.50342    14440.822 
     636 2.394839e-06   -796.50342            0   -796.50342     14440.82 
     637 2.8256583e-06   -796.50342            0   -796.50342    14440.819 
     638 3.2908943e-06   -796.50342            0   -796.50342    14440.817 
     639 3.7901463e-06   -796.50342            0   -796.50342    14440.815 
     640 4.3229943e-06   -796.50342            0   -796.50342    14440.813 
     641 4.888985e-06   -796.50341            0   -796.50341     14440.81 
     642 5.4876371e-06   -796.50341            0   -796.50341    14440.808 
     643 6.118439e-06   -796.50341            0   -796.50341    14440.806 
     644 6.7808511e-06   -796.50341            0   -796.50341    14440.803 
     645 7.4743051e-06   -796.50341            0   -796.50341      14440.8 
     646 8.1982057e-06   -796.50341            0   -796.50341    14440.797 
     647 8.9519299e-06    -796.5034            0    -796.5034    14440.794 
     648 9.7348293e-06    -796.5034            0    -796.5034    14440.791 
     649 1.0546228e-05    -796.5034            0    -796.5034    14440.788 
     650 1.1385428e-05    -796.5034            0    -796.5034    14440.785 
     651 1.2251702e-05   -796.50339            0   -796.50339    14440.781 
     652 1.3144308e-05   -796.50339            0   -796.50339    14440.778 
     653 1.4062463e-05   -796.50339            0   -796.50339    14440.774 
     654 1.5005399e-05   -796.50339            0   -796.50339    14440.771 
     655 1.5972243e-05   -796.50338            0   -796.50338    14440.767 
     656 1.6962307e-05   -796.50338            0   -796.50338    14440.763 
     657 1.7974343e-05   -796.50338            0   -796.50338     14440.76 
     658 1.9008593e-05   -796.50337            0   -796.50337    14440.756 
     659 2.0060925e-05   -796.50337            0   -796.50337    14440.752 
     660 2.1141362e-05   -796.50337            0   -796.50337    14440.747 
     661 2.2222506e-05   -796.50337            0   -796.50336    14440.745 
     662 2.3509278e-05   -796.50336            0   -796.50336    14440.733 
     663 2.5444406e-05   -796.50336            0   -796.50336    14440.757 
     664 1.9299239e-05   -796.50336            0   -796.50336    14440.708 
     665 6.1098686e-07   -796.50336            0   -796.50336    14440.715 
     666 7.1938511e-07   -796.50336            0   -796.50336    14440.723 
     667 7.1355213e-07   -796.50336            0   -796.50336    14440.728 
     668 7.4159479e-07   -796.50336            0   -796.50336     14440.73 
     669 8.9474651e-07   -796.50335            0   -796.50335    14440.731 
     670 1.1123087e-06   -796.50335            0   -796.50335     14440.73 
     671 1.3590262e-06   -796.50335            0   -796.50335    14440.729 
     672 1.6298951e-06   -796.50335            0   -796.50335    14440.728 
     673 1.9246576e-06   -796.50335            0   -796.50335    14440.727 
     674 2.2430923e-06   -796.50335            0   -796.50335    14440.726 
     675 2.5849309e-06   -796.50335            0   -796.50335    14440.725 
     676 2.9498871e-06   -796.50335            0   -796.50335    14440.724 
     677 3.3376529e-06   -796.50335            0   -796.50335    14440.722 
     678 3.7479006e-06   -796.50335            0   -796.50335    14440.721 
     679 4.180282e-06   -796.50334            0   -796.50334    14440.719 
     680 4.6344295e-06   -796.50334            0   -796.50334    14440.718 
     681 5.109956e-06   -796.50334            0   -796.50334    14440.716 
     682 5.6064554e-06   -796.50334            0   -796.50334    14440.714 
     683 6.1235029e-06   -796.50334            0   -796.50334    14440.713 
     684 6.6606559e-06   -796.50334            0   -796.50334    14440.711 
     685 7.2174532e-06   -796.50333            0   -796.50333    14440.709 
     686 7.7934173e-06   -796.50333            0   -796.50333    14440.707 
     687 8.3880521e-06   -796.50333            0   -796.50333    14440.705 
     688 9.0008482e-06   -796.50333            0   -796.50333    14440.703 
     689 9.6312736e-06   -796.50333            0   -796.50332    14440.701 
     690 1.0278796e-05   -796.50332            0   -796.50332    14440.698 
     691 1.0942831e-05   -796.50332            0   -796.50332    14440.696 
     692 1.1622873e-05   -796.50332            0   -796.50332    14440.694 
     693 1.2318156e-05   -796.50332            0   -796.50332    14440.692 
     694 1.3028598e-05   -796.50331            0   -796.50331    14440.689 
     695 1.3752034e-05   -796.50331            0   -796.50331    14440.687 
     696 1.4492999e-05   -796.50331            0   -796.50331    14440.684 
     697 1.5236237e-05    -796.5033            0    -796.5033    14440.683 
     698 1.6066391e-05    -796.5033            0    -796.5033    14440.676 
     699 1.7093746e-05    -796.5033            0    -796.5033    14440.691 
     700 1.6971508e-05    -796.5033            0    -796.5033     14440.65 
     701 6.0501178e-07    -796.5033            0    -796.5033    14440.657 
     702 6.9841381e-07    -796.5033            0    -796.5033    14440.665 
     703 6.363622e-07    -796.5033            0    -796.5033    14440.672 
     704 5.7893478e-07    -796.5033            0    -796.5033    14440.674 
     705 6.7488096e-07   -796.50329            0   -796.50329    14440.675 
     706 8.3160239e-07   -796.50329            0   -796.50329    14440.674 
     707 1.0081161e-06   -796.50329            0   -796.50329    14440.674 
     708 1.2011144e-06   -796.50329            0   -796.50329    14440.673 
     709 1.4105018e-06   -796.50329            0   -796.50329    14440.673 
     710 1.6361042e-06   -796.50329            0   -796.50329    14440.672 
     711 1.8777332e-06   -796.50329            0   -796.50329    14440.671 
     712 2.135186e-06   -796.50329            0   -796.50329     14440.67 
     713 2.4082457e-06   -796.50329            0   -796.50329     14440.67 
     714 2.6966813e-06   -796.50329            0   -796.50329    14440.669 
     715 3.0002485e-06   -796.50328            0   -796.50328    14440.668 
     716 3.318689e-06   -796.50328            0   -796.50328    14440.667 
     717 3.6517315e-06   -796.50328            0   -796.50328    14440.666 
     718 3.9990917e-06   -796.50328            0   -796.50328    14440.665 
     719 4.3604725e-06   -796.50328            0   -796.50328    14440.664 
     720 4.7355642e-06   -796.50328            0   -796.50328    14440.663 
     721 5.124045e-06   -796.50328            0   -796.50328    14440.662 
     722 5.525581e-06   -796.50327            0   -796.50327    14440.661 
     723 5.9398268e-06   -796.50327            0   -796.50327     14440.66 
     724 6.3664258e-06   -796.50327            0   -796.50327    14440.659 
     725 6.8050099e-06   -796.50327            0   -796.50327    14440.658 
     726 7.2552011e-06   -796.50327            0   -796.50327    14440.657 
     727 7.7166099e-06   -796.50326            0   -796.50326    14440.655 
     728 8.1888389e-06   -796.50326            0   -796.50326    14440.654 
     729 8.6714762e-06   -796.50326            0   -796.50326    14440.653 
     730 9.1641133e-06   -796.50326            0   -796.50326    14440.652 
     731 9.6662953e-06   -796.50326            0   -796.50325    14440.651 
     732 1.0177669e-05   -796.50325            0   -796.50325     14440.65 
     733 1.0697422e-05   -796.50325            0   -796.50325    14440.648 
     734 1.1225179e-05   -796.50325            0   -796.50325    14440.647 
     735 1.1742891e-05   -796.50324            0   -796.50324    14440.646 
     736 1.2053541e-05   -796.50324            0   -796.50324    14440.644 
     737 9.3372374e-06   -796.50324            0   -796.50324    14440.647 
     738 6.3563276e-07   -796.50324            0   -796.50324    14440.644 
     739 6.7569378e-07   -796.50324            0   -796.50324    14440.644 
     740 8.0506233e-07   -796.50324            0   -796.50324    14440.643 
     741 9.4588358e-07   -796.50324            0   -796.50324    14440.643 
     742 1.097605e-06   -796.50324            0   -796.50324    14440.643 
     743  1.26015e-06   -796.50324            0   -796.50324    14440.643 
     744 1.4333609e-06   -796.50323            0   -796.50323    14440.642 
     745 1.6171029e-06   -796.50323            0   -796.50323    14440.642 
     746 1.8112123e-06   -796.50323            0   -796.50323    14440.642 
     747 2.0155308e-06   -796.50323            0   -796.50323    14440.641 
     748 2.2298774e-06   -796.50323            0   -796.50323    14440.641 
     749 2.4540765e-06   -796.50323            0   -796.50323     14440.64 
     750 2.6879267e-06   -796.50323            0   -796.50323     14440.64 
     751 2.931241e-06   -796.50323            0   -796.50323     14440.64 
     752 3.1837888e-06   -796.50323            0   -796.50323    14440.639 
     753 3.4453887e-06   -796.50322            0   -796.50322    14440.639 
     754 3.7157483e-06   -796.50322            0   -796.50322    14440.639 
     755 3.9947659e-06   -796.50322            0   -796.50322    14440.638 
     756 4.2819149e-06   -796.50322            0   -796.50322    14440.638 
     757 4.5775743e-06   -796.50322            0   -796.50322    14440.637 
     758 4.8798431e-06   -796.50322            0   -796.50322    14440.637 
     759 5.191906e-06   -796.50321            0   -796.50321    14440.636 
     760 5.4985764e-06   -796.50321            0   -796.50321    14440.637 
     761 5.7990409e-06   -796.50321            0   -796.50321    14440.634 
     762 5.7362554e-06   -796.50321            0   -796.50321    14440.642 
     763 3.6723164e-06   -796.50321            0   -796.50321    14440.627 
     764 4.1467196e-07   -796.50321            0   -796.50321    14440.632 
     765 3.6377607e-07   -796.50321            0   -796.50321    14440.635 
     766 4.0284608e-07   -796.50321            0   -796.50321    14440.635 
     767 4.9004311e-07   -796.50321            0   -796.50321    14440.635 
     768 5.8657062e-07   -796.50321            0   -796.50321    14440.635 
     769 6.9151391e-07    -796.5032            0    -796.5032    14440.635 
     770 8.0479493e-07    -796.5032            0    -796.5032    14440.635 
     771 9.2631687e-07    -796.5032            0    -796.5032    14440.635 
     772 1.055978e-06    -796.5032            0    -796.5032    14440.634 
     773 1.1936681e-06    -796.5032            0    -796.5032    14440.634 
     774 1.3392706e-06    -796.5032            0    -796.5032    14440.634 
     775 1.4926611e-06    -796.5032            0    -796.5032    14440.634 
     776 1.6537086e-06    -796.5032            0    -796.5032    14440.634 
     777 1.822275e-06    -796.5032            0    -796.5032    14440.634 
     778 1.9982156e-06    -796.5032            0    -796.5032    14440.634 
     779 2.1813786e-06    -796.5032            0    -796.5032    14440.634 
     780 2.3716064e-06   -796.50319            0   -796.50319    14440.634 
     781 2.5687336e-06   -796.50319            0   -796.50319    14440.634 
     782 2.7725913e-06   -796.50319            0   -796.50319    14440.633 
     783 2.9829989e-06   -796.50319            0   -796.50319    14440.633 
     784 3.1997817e-06   -796.50319            0   -796.50319    14440.633 
     785 3.4227324e-06   -796.50319            0   -796.50319    14440.633 
     786 3.6517014e-06   -796.50319            0   -796.50319    14440.633 
     787 3.8863729e-06   -796.50318            0   -796.50318    14440.633 
     788 4.126848e-06   -796.50318            0   -796.50318    14440.633 
     789 4.3719567e-06   -796.50318            0   -796.50318    14440.633 
     790 4.6236946e-06   -796.50318            0   -796.50318    14440.633 
     791 4.8679746e-06   -796.50318            0   -796.50318    14440.634 
     792 5.0779988e-06   -796.50318            0   -796.50318    14440.631 
     793 4.582067e-06   -796.50317            0   -796.50317    14440.641 
     794 1.2841728e-06   -796.50317            0   -796.50317     14440.63 
     795 2.5524596e-07   -796.50317            0   -796.50317    14440.633 
     796 2.7949673e-07   -796.50317            0   -796.50317    14440.633 
     797 3.4101043e-07   -796.50317            0   -796.50317    14440.634 
     798 4.0987408e-07   -796.50317            0   -796.50317    14440.634 
     799 4.8487272e-07   -796.50317            0   -796.50317    14440.634 
     800 5.6596425e-07   -796.50317            0   -796.50317    14440.634 
     801 6.5307673e-07   -796.50317            0   -796.50317    14440.634 
     802 7.4613768e-07   -796.50317            0   -796.50317    14440.634 
     803 8.4506732e-07   -796.50317            0   -796.50317    14440.634 
     804 9.4978164e-07   -796.50317            0   -796.50317    14440.634 
     805 1.0601906e-06   -796.50317            0   -796.50317    14440.634 
     806 1.1761997e-06   -796.50317            0   -796.50317    14440.634 
     807 1.2977085e-06   -796.50316            0   -796.50316    14440.634 
     808 1.4246127e-06   -796.50316            0   -796.50316    14440.634 
     809 1.5568016e-06   -796.50316            0   -796.50316    14440.634 
     810 1.6941615e-06   -796.50316            0   -796.50316    14440.635 
     811 1.8365713e-06   -796.50316            0   -796.50316    14440.635 
     812 1.9839102e-06   -796.50316            0   -796.50316    14440.635 
     813 2.1360498e-06   -796.50316            0   -796.50316    14440.635 
     814 2.2928649e-06   -796.50316            0   -796.50316    14440.635 
     815 2.4541973e-06   -796.50316            0   -796.50316    14440.635 
     816 2.6199641e-06   -796.50315            0   -796.50315    14440.635 
     817 2.789852e-06   -796.50315            0   -796.50315    14440.636 
     818 2.9641775e-06   -796.50315            0   -796.50315    14440.636 
     819 3.1412635e-06   -796.50315            0   -796.50315    14440.636 
     820 3.3244931e-06   -796.50315            0   -796.50315    14440.636 
     821 3.4911059e-06   -796.50315            0   -796.50315    14440.638 
     822 3.5980977e-06   -796.50315            0   -796.50315    14440.632 
     823 2.5919806e-06   -796.50314            0   -796.50314    14440.647 
     824 1.8074076e-07   -796.50314            0   -796.50314    14440.642 
     825 1.7966794e-07   -796.50314            0   -796.50314    14440.639 
     826 1.7489861e-07   -796.50314            0   -796.50314    14440.638 
     827 2.0907751e-07   -796.50314            0   -796.50314    14440.637 
     828 2.5529764e-07   -796.50314            0   -796.50314    14440.637 
     829 3.0640301e-07   -796.50314            0   -796.50314    14440.638 
     830 3.6203935e-07   -796.50314            0   -796.50314    14440.638 
     831 4.2215767e-07   -796.50314            0   -796.50314    14440.638 
     832 4.8670778e-07   -796.50314            0   -796.50314    14440.638 
     833 5.5563462e-07   -796.50314            0   -796.50314    14440.638 
     834 6.2887943e-07   -796.50314            0   -796.50314    14440.638 
     835 7.0637935e-07   -796.50314            0   -796.50314    14440.638 
     836 7.8806776e-07   -796.50314            0   -796.50314    14440.639 
     837 8.7387411e-07   -796.50314            0   -796.50314    14440.639 
     838 9.6372421e-07   -796.50314            0   -796.50314    14440.639 
     839  1.05754e-06   -796.50314            0   -796.50314    14440.639 
     840 1.1552401e-06   -796.50314            0   -796.50314    14440.639 
     841 1.256739e-06   -796.50313            0   -796.50313     14440.64 
     842 1.3619486e-06   -796.50313            0   -796.50313     14440.64 
     843 1.4707759e-06   -796.50313            0   -796.50313     14440.64 
     844 1.5831272e-06   -796.50313            0   -796.50313    14440.641 
     845 1.6989004e-06   -796.50313            0   -796.50313    14440.641 
     846 1.8180012e-06   -796.50313            0   -796.50313    14440.641 
     847 1.9403065e-06   -796.50313            0   -796.50313    14440.642 
     848 2.065755e-06   -796.50313            0   -796.50313    14440.642 
     849 2.1941031e-06   -796.50313            0   -796.50313    14440.643 
     850 2.325597e-06   -796.50312            0   -796.50312    14440.643 
     851 2.4587399e-06   -796.50312            0   -796.50312    14440.644 
     852 2.5951401e-06   -796.50312            0   -796.50312    14440.644 
     853 2.6982053e-06   -796.50312            0   -796.50312    14440.646 
     854 2.5471001e-06   -796.50312            0   -796.50312     14440.64 
     855 8.4207681e-07   -796.50312            0   -796.50312    14440.649 
     856 7.3951103e-08   -796.50312            0   -796.50312    14440.647 
     857 8.9866982e-08   -796.50312            0   -796.50312    14440.646 
     858 1.1058847e-07   -796.50312            0   -796.50312    14440.645 
     859 1.3859198e-07   -796.50312            0   -796.50312    14440.646 
     860 1.7087686e-07   -796.50312            0   -796.50312    14440.646 
     861 2.0657557e-07   -796.50312            0   -796.50312    14440.646 
     862 2.4557532e-07   -796.50312            0   -796.50312    14440.646 
     863 2.8783839e-07   -796.50312            0   -796.50312    14440.646 
     864 3.3332943e-07   -796.50312            0   -796.50312    14440.646 
     865 3.8200939e-07   -796.50311            0   -796.50311    14440.647 
     866 4.3383655e-07   -796.50311            0   -796.50311    14440.647 
     867 4.8876618e-07   -796.50311            0   -796.50311    14440.647 
     868 5.467508e-07   -796.50311            0   -796.50311    14440.647 
     869 6.0774001e-07   -796.50311            0   -796.50311    14440.648 
     870 6.7168079e-07   -796.50311            0   -796.50311    14440.648 
     871 7.3851722e-07   -796.50311            0   -796.50311    14440.648 
     872 8.0819092e-07   -796.50311            0   -796.50311    14440.649 
     873 8.8064062e-07   -796.50311            0   -796.50311    14440.649 
     874 9.5580287e-07   -796.50311            0   -796.50311    14440.649 
     875 1.033611e-06   -796.50311            0   -796.50311     14440.65 
     876 1.1139972e-06   -796.50311            0   -796.50311     14440.65 
     877 1.1968885e-06   -796.50311            0   -796.50311    14440.651 
     878 1.282216e-06   -796.50311            0   -796.50311    14440.651 
     879 1.3698927e-06    -796.5031            0    -796.5031    14440.651 
     880  1.45987e-06    -796.5031            0    -796.5031    14440.652 
     881 1.551986e-06    -796.5031            0    -796.5031    14440.653 
     882 1.6463919e-06    -796.5031            0    -796.5031    14440.653 
     883 1.7422409e-06    -796.5031            0    -796.5031    14440.654 
     884 1.8414676e-06    -796.5031            0    -796.5031    14440.654 
     885 1.9325562e-06    -796.5031            0    -796.5031    14440.656 
     886 2.0009573e-06    -796.5031            0    -796.5031    14440.652 
     887 1.4400658e-06    -796.5031            0    -796.5031    14440.663 
     888 6.1249284e-08    -796.5031            0    -796.5031     14440.66 
     889 7.2016824e-08    -796.5031            0    -796.5031    14440.658 
     890 7.4121694e-08    -796.5031            0    -796.5031    14440.657 
     891 8.3338183e-08   -796.50309            0   -796.50309    14440.656 
     892 1.0312087e-07   -796.50309            0   -796.50309    14440.656 
     893 1.2679114e-07   -796.50309            0   -796.50309    14440.657 
     894 1.5296308e-07   -796.50309            0   -796.50309    14440.657 
     895 1.8152558e-07   -796.50309            0   -796.50309    14440.657 
     896 2.1245174e-07   -796.50309            0   -796.50309    14440.657 
     897 2.457155e-07   -796.50309            0   -796.50309    14440.657 
     898 2.8128805e-07   -796.50309            0   -796.50309    14440.658 
     899 3.1913868e-07   -796.50309            0   -796.50309    14440.658 
     900 3.5923446e-07   -796.50309            0   -796.50309    14440.658 
     901 4.0154046e-07   -796.50309            0   -796.50309    14440.659 
     902 4.4601962e-07   -796.50309            0   -796.50309    14440.659 
     903 4.9263297e-07   -796.50309            0   -796.50309    14440.659 
     904 5.4133944e-07   -796.50309            0   -796.50309     14440.66 
     905 5.9209616e-07   -796.50309            0   -796.50309     14440.66 
     906 6.4485809e-07   -796.50309            0   -796.50309     14440.66 
     907 6.9957879e-07   -796.50309            0   -796.50309    14440.661 
     908 7.5620911e-07   -796.50309            0   -796.50309    14440.661 
     909 8.1469982e-07   -796.50309            0   -796.50309    14440.662 
     910 8.7499629e-07   -796.50308            0   -796.50308    14440.662 
     911 9.3705059e-07   -796.50308            0   -796.50308    14440.663 
     912 1.0007924e-06   -796.50308            0   -796.50308    14440.663 
     913 1.0662038e-06   -796.50308            0   -796.50308    14440.664 
     914 1.1331156e-06   -796.50308            0   -796.50308    14440.665 
     915 1.2017895e-06   -796.50308            0   -796.50308    14440.665 
     916 1.2711173e-06   -796.50308            0   -796.50308    14440.666 
     917 1.3440971e-06   -796.50308            0   -796.50308    14440.666 
     918 1.4067795e-06   -796.50308            0   -796.50308    14440.669 
     919 1.4466663e-06   -796.50308            0   -796.50308    14440.663 
     920 5.6138302e-07   -796.50308            0   -796.50308    14440.671 
     921 6.7595376e-08   -796.50308            0   -796.50308    14440.669 
     922 6.3486873e-08   -796.50308            0   -796.50308    14440.668 
     923 7.6032472e-08   -796.50308            0   -796.50308    14440.668 
     924 9.3330843e-08   -796.50308            0   -796.50308    14440.669 
     925 1.1252973e-07   -796.50307            0   -796.50307    14440.669 
     926 1.3347603e-07   -796.50307            0   -796.50307    14440.669 
     927 1.5614983e-07   -796.50307            0   -796.50307    14440.669 
     928 1.8053191e-07   -796.50307            0   -796.50307    14440.669 
     929 2.0660099e-07   -796.50307            0   -796.50307     14440.67 
     930 2.3433442e-07   -796.50307            0   -796.50307     14440.67 
     931 2.6370786e-07   -796.50307            0   -796.50307     14440.67 
     932 2.9469557e-07   -796.50307            0   -796.50307    14440.671 
     933 3.2727019e-07   -796.50307            0   -796.50307    14440.671 
     934 3.6140299e-07   -796.50307            0   -796.50307    14440.671 
     935 3.9706365e-07   -796.50307            0   -796.50307    14440.672 
     936 4.3422061e-07   -796.50307            0   -796.50307    14440.672 
     937 4.728406e-07   -796.50307            0   -796.50307    14440.673 
     938 5.1288948e-07   -796.50307            0   -796.50307    14440.673 
     939 5.5433082e-07   -796.50307            0   -796.50307    14440.674 
     940 5.9712879e-07   -796.50307            0   -796.50307    14440.674 
     941 6.4124211e-07   -796.50307            0   -796.50307    14440.675 
     942 6.866379e-07   -796.50307            0   -796.50307    14440.675 
     943 7.3325813e-07   -796.50307            0   -796.50307    14440.676 
     944 7.8110649e-07   -796.50306            0   -796.50306    14440.676 
     945 8.3000869e-07   -796.50306            0   -796.50306    14440.677 
     946 8.8030216e-07   -796.50306            0   -796.50306    14440.677 
     947 9.3065157e-07   -796.50306            0   -796.50306    14440.678 
     948 9.8450083e-07   -796.50306            0   -796.50306    14440.678 
     949 1.0218455e-06   -796.50306            0   -796.50306    14440.682 
     950 9.3020891e-07   -796.50306            0   -796.50306    14440.675 
     951 8.4704129e-08   -796.50306            0   -796.50306    14440.678 
     952 6.625096e-08   -796.50306            0   -796.50306     14440.68 
     953 5.7199866e-08   -796.50306            0   -796.50306     14440.68 
     954 6.9431116e-08   -796.50306            0   -796.50306    14440.681 
     955 8.3656108e-08   -796.50306            0   -796.50306    14440.681 
     956 9.9167283e-08   -796.50306            0   -796.50306    14440.681 
     957 1.1595303e-07   -796.50306            0   -796.50306    14440.681 
     958 1.3399836e-07   -796.50306            0   -796.50306    14440.681 
     959 1.5328766e-07   -796.50306            0   -796.50306    14440.682 
     960 1.7380393e-07   -796.50306            0   -796.50306    14440.682 
     961 1.9552914e-07   -796.50306            0   -796.50306    14440.682 
     962 2.1844403e-07   -796.50306            0   -796.50306    14440.683 
     963 2.4252834e-07   -796.50306            0   -796.50306    14440.683 
     964 2.6776057e-07   -796.50306            0   -796.50306    14440.683 
     965 2.941183e-07   -796.50305            0   -796.50305    14440.684 
     966 3.2157784e-07   -796.50305            0   -796.50305    14440.684 
     967 3.5011481e-07   -796.50305            0   -796.50305    14440.685 
     968 3.7970314e-07   -796.50305            0   -796.50305    14440.685 
     969 4.1031707e-07   -796.50305            0   -796.50305    14440.686 
     970 4.4192719e-07   -796.50305            0   -796.50305    14440.686 
     971  4.74509e-07   -796.50305            0   -796.50305    14440.687 
     972 5.0802313e-07   -796.50305            0   -796.50305    14440.687 
     973 5.4246376e-07   -796.50305            0   -796.50305    14440.688 
     974 5.7772743e-07   -796.50305            0   -796.50305    14440.688 
     975 6.139431e-07   -796.50305            0   -796.50305    14440.689 
     976 6.5017648e-07   -796.50305            0   -796.50305     14440.69 
     977 6.8514792e-07   -796.50305            0   -796.50305     14440.69 
     978 6.8019678e-07   -796.50305            0   -796.50305    14440.692 
     979 4.237698e-07   -796.50305            0   -796.50305    14440.689 
     980 2.5652536e-08   -796.50305            0   -796.50305     14440.69 
     981 3.2661453e-08   -796.50305            0   -796.50305    14440.691 
     982 3.9004606e-08   -796.50305            0   -796.50305    14440.692 
     983 4.8149129e-08   -796.50305            0   -796.50305    14440.692 
     984 5.8444676e-08   -796.50305            0   -796.50305    14440.692 
     985  6.97053e-08   -796.50305            0   -796.50305    14440.692 
     986 8.192709e-08   -796.50304            0   -796.50304    14440.692 
     987  9.50984e-08   -796.50304            0   -796.50304    14440.693 
     988 1.0920801e-07   -796.50304            0   -796.50304    14440.693 
     989 1.2424331e-07   -796.50304            0   -796.50304    14440.693 
     990 1.4019112e-07   -796.50304            0   -796.50304    14440.693 
     991 1.5703718e-07   -796.50304            0   -796.50304    14440.694 
     992 1.7476657e-07   -796.50304            0   -796.50304    14440.694 
     993 1.9336335e-07   -796.50304            0   -796.50304    14440.694 
     994 2.1281099e-07   -796.50304            0   -796.50304    14440.695 
     995 2.3309181e-07   -796.50304            0   -796.50304    14440.695 
     996 2.541879e-07   -796.50304            0   -796.50304    14440.695 
     997 2.7607962e-07   -796.50304            0   -796.50304    14440.696 
     998 2.9874832e-07   -796.50304            0   -796.50304    14440.696 
     999 3.2217109e-07   -796.50304            0   -796.50304    14440.697 
    1000 3.4633191e-07   -796.50304            0   -796.50304    14440.697 
    1001 3.7119638e-07   -796.50304            0   -796.50304    14440.698 
    1002 3.9677224e-07   -796.50304            0   -796.50304    14440.698 
    1003 4.2294985e-07   -796.50304            0   -796.50304    14440.699 
    1004 4.4990653e-07   -796.50304            0   -796.50304    14440.699 
    1005 4.7665216e-07   -796.50304            0   -796.50304      14440.7 
    1006 5.0269551e-07   -796.50304            0   -796.50304      14440.7 
    1007 4.9494279e-07   -796.50304            0   -796.50304    14440.703 
    1008 2.9591267e-07   -796.50303            0   -796.50303    14440.699 
    1009 1.7905778e-08   -796.50303            0   -796.50303      14440.7 
    1010 2.1271447e-08   -796.50303            0   -796.50303    14440.701 
    1011 2.4627106e-08   -796.50303            0   -796.50303    14440.702 
    1012 3.0580736e-08   -796.50303            0   -796.50303    14440.702 
    1013 3.7750976e-08   -796.50303            0   -796.50303    14440.702 
[...]
    2383 1.6366345e-07   -796.54793            0   -796.54793     14489.23 
    2384 1.7918608e-07   -796.54793            0   -796.54793    14489.232 
    2385 1.9527665e-07   -796.54793            0   -796.54793    14489.234 
    2386 2.1191316e-07   -796.54793            0   -796.54793    14489.237 
    2387 2.2906923e-07   -796.54793            0   -796.54793    14489.239 
    2388 2.4672318e-07   -796.54793            0   -796.54793    14489.242 
    2389 2.6484339e-07   -796.54793            0   -796.54793    14489.244 
    2390 2.8341438e-07   -796.54793            0   -796.54793    14489.247 
    2391 3.0238661e-07   -796.54793            0   -796.54793     14489.25 
    2392 3.2178063e-07   -796.54793            0   -796.54793    14489.253 
    2393 3.4145239e-07   -796.54793            0   -796.54793    14489.256 
    2394 3.6164267e-07   -796.54793            0   -796.54793    14489.259 
    2395 3.8148516e-07   -796.54793            0   -796.54793    14489.263 
    2396 4.0238297e-07   -796.54793            0   -796.54793    14489.265 
    2397 4.1216757e-07   -796.54793            0   -796.54793    14489.271 
    2398 3.4626536e-07   -796.54793            0   -796.54793    14489.268 
    2399 4.8855414e-08   -796.54793            0   -796.54793    14489.271 
    2400 2.9869564e-08   -796.54793            0   -796.54793    14489.273 
    2401 3.1392777e-08   -796.54793            0   -796.54793    14489.274 
    2402 3.7070411e-08   -796.54793            0   -796.54793    14489.275 
    2403 4.3187273e-08   -796.54793            0   -796.54793    14489.276 
    2404 4.9740334e-08   -796.54793            0   -796.54793    14489.277 
    2405 5.671902e-08   -796.54793            0   -796.54793    14489.278 
    2406 6.4113717e-08   -796.54793            0   -796.54793    14489.279 
    2407 7.1913649e-08   -796.54793            0   -796.54793    14489.281 
    2408 8.0107695e-08   -796.54793            0   -796.54793    14489.282 
    2409 8.8683965e-08   -796.54793            0   -796.54793    14489.284 
    2410 9.7630132e-08   -796.54793            0   -796.54793    14489.285 
    2411 1.0693318e-07   -796.54793            0   -796.54793    14489.287 
    2412 1.165797e-07   -796.54793            0   -796.54793    14489.289 
    2413 1.2655559e-07   -796.54793            0   -796.54793    14489.291 
    2414 1.3684649e-07   -796.54793            0   -796.54793    14489.293 
    2415 1.4743722e-07   -796.54793            0   -796.54793    14489.295 
    2416 1.5831274e-07   -796.54793            0   -796.54793    14489.297 
    2417 1.6945649e-07   -796.54793            0   -796.54793    14489.299 
    2418 1.8085366e-07   -796.54793            0   -796.54793    14489.301 
    2419 1.9248458e-07   -796.54793            0   -796.54793    14489.303 
    2420 2.0433924e-07   -796.54793            0   -796.54793    14489.306 
    2421 2.1638319e-07   -796.54793            0   -796.54793    14489.308 
    2422 2.2864303e-07   -796.54793            0   -796.54793    14489.311 
    2423 2.4097333e-07   -796.54793            0   -796.54793    14489.313 
    2424 2.536923e-07   -796.54793            0   -796.54793    14489.316 
    2425 2.6538553e-07   -796.54793            0   -796.54793    14489.319 
    2426 2.7671803e-07   -796.54793            0   -796.54793     14489.32 
    2427 2.2931086e-07   -796.54793            0   -796.54793    14489.326 
    2428 2.1374088e-08   -796.54793            0   -796.54793    14489.325 
    2429 1.6652244e-08   -796.54793            0   -796.54793    14489.324 
    2430 1.448874e-08   -796.54793            0   -796.54793    14489.325 
    2431 1.7108147e-08   -796.54793            0   -796.54793    14489.325 
    2432 2.0249752e-08   -796.54793            0   -796.54793    14489.326 
    2433 2.364513e-08   -796.54793            0   -796.54793    14489.327 
    2434 2.7285955e-08   -796.54793            0   -796.54793    14489.327 
    2435 3.1167359e-08   -796.54793            0   -796.54793    14489.328 
    2436 3.5283729e-08   -796.54793            0   -796.54793    14489.329 
    2437 3.9629211e-08   -796.54793            0   -796.54793     14489.33 
    2438 4.4197554e-08   -796.54793            0   -796.54793    14489.331 
    2439  4.89822e-08   -796.54793            0   -796.54793    14489.333 
    2440 5.3976241e-08   -796.54793            0   -796.54793    14489.334 
    2441 5.9172471e-08   -796.54793            0   -796.54793    14489.335 
    2442 6.4563359e-08   -796.54793            0   -796.54793    14489.336 
    2443 7.0141106e-08   -796.54793            0   -796.54793    14489.338 
    2444 7.5897591e-08   -796.54793            0   -796.54793    14489.339 
    2445 8.1824479e-08   -796.54793            0   -796.54793    14489.341 
    2446 8.7913089e-08   -796.54793            0   -796.54793    14489.342 
    2447 9.4154649e-08   -796.54793            0   -796.54793    14489.344 
    2448 1.0053986e-07   -796.54793            0   -796.54793    14489.345 
    2449 1.0705982e-07   -796.54793            0   -796.54793    14489.347 
    2450 1.1370405e-07   -796.54793            0   -796.54793    14489.349 
    2451 1.2046513e-07   -796.54793            0   -796.54793    14489.351 
    2452 1.2732727e-07   -796.54793            0   -796.54793    14489.352 
    2453 1.342964e-07   -796.54793            0   -796.54793    14489.354 
    2454 1.4131484e-07   -796.54793            0   -796.54793    14489.356 
    2455 1.4850767e-07   -796.54793            0   -796.54793    14489.358 
    2456 1.5532611e-07   -796.54793            0   -796.54793     14489.36 
    2457 1.6245329e-07   -796.54793            0   -796.54793    14489.362 
    2458 1.5080402e-07   -796.54793            0   -796.54793    14489.366 
    2459 2.9803562e-08   -796.54793            0   -796.54793    14489.365 
    2460 1.0464096e-08   -796.54793            0   -796.54793    14489.365 
    2461 1.2214994e-08   -796.54793            0   -796.54793    14489.366 
    2462 1.4173952e-08   -796.54793            0   -796.54793    14489.366 
    2463 1.6264875e-08   -796.54793            0   -796.54793    14489.367 
    2464 1.8488922e-08   -796.54793            0   -796.54793    14489.367 
    2465 2.0841196e-08   -796.54793            0   -796.54793    14489.368 
    2466 2.331915e-08   -796.54793            0   -796.54793    14489.369 
    2467 2.591869e-08   -796.54793            0   -796.54793     14489.37 
    2468 2.8636478e-08   -796.54793            0   -796.54793    14489.371 
    2469 3.1468211e-08   -796.54793            0   -796.54793    14489.372 
    2470 3.441018e-08   -796.54793            0   -796.54793    14489.372 
    2471 3.745765e-08   -796.54793            0   -796.54793    14489.373 
    2472 4.0606803e-08   -796.54793            0   -796.54793    14489.375 
    2473 4.3852157e-08   -796.54793            0   -796.54793    14489.376 
    2474 4.7190409e-08   -796.54793            0   -796.54793    14489.377 
    2475 5.0614187e-08   -796.54793            0   -796.54793    14489.378 
    2476 5.4123159e-08   -796.54793            0   -796.54793    14489.379 
    2477 5.7702617e-08   -796.54793            0   -796.54793     14489.38 
    2478 6.136768e-08   -796.54793            0   -796.54793    14489.382 
    2479 6.5063238e-08   -796.54793            0   -796.54793    14489.383 
    2480 6.8893029e-08   -796.54793            0   -796.54793    14489.384 
    2481 7.2469314e-08   -796.54793            0   -796.54793    14489.386 
    2482 7.6119998e-08   -796.54793            0   -796.54793    14489.387 
    2483 7.2451951e-08   -796.54792            0   -796.54792    14489.389 
    2484 3.2507993e-08   -796.54792            0   -796.54792    14489.388 
    2485 5.8185902e-09   -796.54792            0   -796.54792    14489.389 
    2486 5.0959494e-09   -796.54792            0   -796.54792    14489.389 
    2487 6.0485269e-09   -796.54792            0   -796.54792     14489.39 
    2488 7.1391169e-09   -796.54792            0   -796.54792     14489.39 
    2489 8.3142634e-09   -796.54792            0   -796.54792    14489.391 
    2490 9.5728677e-09   -796.54792            0   -796.54792    14489.391 
    2491 1.0913051e-08   -796.54792            0   -796.54792    14489.392 
    2492 1.2332921e-08   -796.54792            0   -796.54792    14489.392 
    2493 1.3830425e-08   -796.54792            0   -796.54792    14489.393 
    2494 1.5403414e-08   -796.54792            0   -796.54792    14489.393 
    2495 1.7049609e-08   -796.54792            0   -796.54792    14489.394 
    2496 1.8766629e-08   -796.54792            0   -796.54792    14489.395 
    2497 2.0551975e-08   -796.54792            0   -796.54792    14489.396 
    2498 2.2403055e-08   -796.54792            0   -796.54792    14489.396 
    2499 2.4317162e-08   -796.54792            0   -796.54792    14489.397 
    2500 2.6291508e-08   -796.54792            0   -796.54792    14489.398 
    2501 2.8323191e-08   -796.54792            0   -796.54792    14489.399 
    2502 3.0409254e-08   -796.54792            0   -796.54792      14489.4 
    2503 3.2546595e-08   -796.54792            0   -796.54792    14489.401 
    2504 3.4732149e-08   -796.54792            0   -796.54792    14489.402 
    2505 3.6962536e-08   -796.54792            0   -796.54792    14489.403 
    2506 3.9234835e-08   -796.54792            0   -796.54792    14489.404 
    2507 4.1544797e-08   -796.54792            0   -796.54792    14489.405 
    2508 4.3891323e-08   -796.54792            0   -796.54792    14489.406 
    2509 4.6264493e-08   -796.54792            0   -796.54792    14489.407 
    2510 4.8679029e-08   -796.54792            0   -796.54792    14489.408 
    2511 5.1069722e-08   -796.54792            0   -796.54792    14489.409 
    2512 5.3580384e-08   -796.54792            0   -796.54792     14489.41 
    2513 5.5102664e-08   -796.54792            0   -796.54792    14489.412 
    2514 5.0119887e-08   -796.54792            0   -796.54792    14489.411 
    2515 6.0353468e-09   -796.54792            0   -796.54792    14489.412 
    2516 3.6283171e-09   -796.54792            0   -796.54792    14489.413 
    2517 3.567577e-09   -796.54792            0   -796.54792    14489.413 
    2518 4.1870536e-09   -796.54792            0   -796.54792    14489.413 
    2519 4.8544132e-09   -796.54792            0   -796.54792    14489.414 
    2520 5.567321e-09   -796.54792            0   -796.54792    14489.414 
    2521 6.3249738e-09   -796.54792            0   -796.54792    14489.415 
    2522 7.1262011e-09   -796.54792            0   -796.54792    14489.415 
    2523 7.9698841e-09   -796.54792            0   -796.54792    14489.415 
    2524 8.8547735e-09   -796.54792            0   -796.54792    14489.416 
    2525 9.7796025e-09   -796.54792            0   -796.54792    14489.416 
    2526 1.0743004e-08   -796.54792            0   -796.54792    14489.417 
    2527 1.1743588e-08   -796.54792            0   -796.54792    14489.417 
    2528 1.2779867e-08   -796.54792            0   -796.54792    14489.418 
    2529 1.385035e-08   -796.54792            0   -796.54792    14489.419 
    2530 1.4953418e-08   -796.54792            0   -796.54792    14489.419 
    2531 1.6087516e-08   -796.54792            0   -796.54792     14489.42 
    2532 1.7250847e-08   -796.54792            0   -796.54792     14489.42 
    2533 1.8441926e-08   -796.54792            0   -796.54792    14489.421 
    2534 1.9658507e-08   -796.54792            0   -796.54792    14489.422 
    2535 2.0899837e-08   -796.54792            0   -796.54792    14489.423 
    2536 2.2161605e-08   -796.54792            0   -796.54792    14489.423 
    2537 2.3447968e-08   -796.54792            0   -796.54792    14489.424 
    2538 2.4740362e-08   -796.54792            0   -796.54792    14489.425 
    2539 2.6078356e-08   -796.54792            0   -796.54792    14489.426 
    2540 2.7292766e-08   -796.54792            0   -796.54792    14489.427 
    2541 2.846718e-08   -796.54792            0   -796.54792    14489.427 
    2542 2.4426472e-08   -796.54792            0   -796.54792    14489.429 
    2543 3.973093e-09   -796.54792            0   -796.54792    14489.428 
    2544 2.0714982e-09   -796.54792            0   -796.54792    14489.428 
    2545 2.246829e-09   -796.54792            0   -796.54792    14489.429 
    2546 2.6239671e-09   -796.54792            0   -796.54792    14489.429 
    2547 3.0274935e-09   -796.54792            0   -796.54792    14489.429 
    2548 3.4580552e-09   -796.54792            0   -796.54792    14489.429 
    2549 3.9144902e-09   -796.54792            0   -796.54792     14489.43 
    2550 4.396351e-09   -796.54792            0   -796.54792     14489.43 
    2551 4.9028137e-09   -796.54792            0   -796.54792     14489.43 
    2552 5.4332244e-09   -796.54792            0   -796.54792    14489.431 
    2553 5.9867337e-09   -796.54792            0   -796.54792    14489.431 
    2554   6.5626e-09   -796.54792            0   -796.54792    14489.432 
    2555 7.1598963e-09   -796.54792            0   -796.54792    14489.432 
    2556 7.7778406e-09   -796.54792            0   -796.54792    14489.432 
    2557 8.4153819e-09   -796.54792            0   -796.54792    14489.433 
    2558 9.0717855e-09   -796.54792            0   -796.54792    14489.433 
    2559 9.7457281e-09   -796.54792            0   -796.54792    14489.434 
    2560 1.0436837e-08   -796.54792            0   -796.54792    14489.434 
    2561 1.114285e-08   -796.54792            0   -796.54792    14489.435 
    2562 1.186527e-08   -796.54792            0   -796.54792    14489.435 
    2563 1.2597129e-08   -796.54792            0   -796.54792    14489.436 
    2564 1.3350601e-08   -796.54792            0   -796.54792    14489.437 
    2565 1.4085247e-08   -796.54792            0   -796.54792    14489.437 
    2566 1.486747e-08   -796.54792            0   -796.54792    14489.438 
    2567 1.5194506e-08   -796.54792            0   -796.54792    14489.439 
    2568 1.3346326e-08   -796.54792            0   -796.54792    14489.438 
    2569 2.7115215e-09   -796.54792            0   -796.54792    14489.439 
    2570 1.2596125e-09   -796.54792            0   -796.54792    14489.439 
    2571 1.4788072e-09   -796.54792            0   -796.54792    14489.439 
    2572 1.7185825e-09   -796.54792            0   -796.54792     14489.44 
    2573 1.9756822e-09   -796.54792            0   -796.54792     14489.44 
    2574 2.2490704e-09   -796.54792            0   -796.54792     14489.44 
    2575 2.538536e-09   -796.54792            0   -796.54792     14489.44 
    2576 2.8435659e-09   -796.54792            0   -796.54792    14489.441 
    2577 3.1637681e-09   -796.54792            0   -796.54792    14489.441 
    2578 3.4986301e-09   -796.54792            0   -796.54792    14489.441 
    2579 3.8476956e-09   -796.54792            0   -796.54792    14489.441 
    2580 4.2104098e-09   -796.54792            0   -796.54792    14489.442 
    2581 4.5862805e-09   -796.54792            0   -796.54792    14489.442 
    2582 4.974691e-09   -796.54792            0   -796.54792    14489.442 
    2583 5.3751475e-09   -796.54792            0   -796.54792    14489.443 
    2584 5.7869201e-09   -796.54792            0   -796.54792    14489.443 
    2585 6.209622e-09   -796.54792            0   -796.54792    14489.444 
    2586 6.6421946e-09   -796.54792            0   -796.54792    14489.444 
    2587 7.0848397e-09   -796.54792            0   -796.54792    14489.444 
    2588 7.535038e-09   -796.54792            0   -796.54792    14489.445 
    2589 7.9962632e-09   -796.54792            0   -796.54792    14489.445 
    2590 8.456879e-09   -796.54792            0   -796.54792    14489.446 
    2591 8.9398834e-09   -796.54792            0   -796.54792    14489.446 
    2592 9.3426048e-09   -796.54792            0   -796.54792    14489.447 
    2593 9.634923e-09   -796.54792            0   -796.54792    14489.447 
    2594 7.0227316e-09   -796.54792            0   -796.54792    14489.448 
    2595 9.1408321e-10   -796.54792            0   -796.54792    14489.448 
    2596 6.5503926e-10   -796.54792            0   -796.54792    14489.448 
    2597 6.7525685e-10   -796.54792            0   -796.54792    14489.448 
    2598 8.0181642e-10   -796.54792            0   -796.54792    14489.448 
    2599 9.4083168e-10   -796.54792            0   -796.54792    14489.448 
    2600 1.0902206e-09   -796.54792            0   -796.54792    14489.448 
    2601 1.2497968e-09   -796.54792            0   -796.54792    14489.448 
    2602 1.4193208e-09   -796.54792            0   -796.54792    14489.449 
    2603 1.5985465e-09   -796.54792            0   -796.54792    14489.449 
    2604 1.7872089e-09   -796.54792            0   -796.54792    14489.449 
    2605 1.9850304e-09   -796.54792            0   -796.54792    14489.449 
    2606 2.1917174e-09   -796.54792            0   -796.54792    14489.449 
    2607 2.4069638e-09   -796.54792            0   -796.54792     14489.45 
    2608 2.6304486e-09   -796.54792            0   -796.54792     14489.45 
    2609 2.8618392e-09   -796.54792            0   -796.54792     14489.45 
    2610 3.1007885e-09   -796.54792            0   -796.54792     14489.45 
    2611 3.3469406e-09   -796.54792            0   -796.54792    14489.451 
    2612 3.5999228e-09   -796.54792            0   -796.54792    14489.451 
    2613 3.8593603e-09   -796.54792            0   -796.54792    14489.451 
    2614 4.1248521e-09   -796.54792            0   -796.54792    14489.452 
    2615 4.3960178e-09   -796.54792            0   -796.54792    14489.452 
    2616 4.6724041e-09   -796.54792            0   -796.54792    14489.452 
    2617 4.953693e-09   -796.54792            0   -796.54792    14489.453 
    2618 5.2392096e-09   -796.54792            0   -796.54792    14489.453 
    2619 5.5291712e-09   -796.54792            0   -796.54792    14489.453 
    2620 5.8212873e-09   -796.54792            0   -796.54792    14489.454 
    2621 6.1204033e-09   -796.54792            0   -796.54792    14489.454 
    2622 6.4074341e-09   -796.54792            0   -796.54792    14489.455 
    2623 6.7227351e-09   -796.54792            0   -796.54792    14489.455 
    2624 6.6554918e-09   -796.54792            0   -796.54792    14489.456 
    2625 3.2961975e-09   -796.54792            0   -796.54792    14489.455 
    2626 1.6911059e-10   -796.54792            0   -796.54792    14489.455 
Loop time of 580.077 on 24 procs for 891 steps with 127 atoms

98.3% CPU use with 24 MPI tasks x no OpenMP threads

Minimization stats:
  Stopping criterion = energy tolerance
  Energy initial, next-to-last, final = 
        -796.502959158     -796.547917487      -796.54791748
  Force two-norm initial, final = 3.47876e-06 1.01786e-05
  Force max component initial, final = 2.67439e-06 4.93494e-06
  Final line search alpha, max atom move = 0 0
  Iterations, force evaluations = 891 891

MPI task timing breakdown:
Section |  min time  |  avg time  |  max time  |%varavg| %total
---------------------------------------------------------------
Pair    | 218.15     | 383.97     | 521.3      | 462.3 | 66.19
Neigh   | 0          | 0          | 0          |   0.0 |  0.00
Comm    | 0.063469   | 137.39     | 303.21     | 772.8 | 23.69
Output  | 0.1517     | 0.15187    | 0.1527     |   0.0 |  0.03
Modify  | 56.893     | 56.897     | 56.898     |   0.0 |  9.81
Other   |            | 1.665      |            |       |  0.29

Nlocal:    5.29167 ave 7 max 3 min
Histogram: 4 0 0 0 0 9 0 7 0 4
Nghost:    762.708 ave 803 max 714 min
Histogram: 5 3 0 0 0 4 4 0 3 5
Neighs:    0 ave 0 max 0 min
Histogram: 24 0 0 0 0 0 0 0 0 0
FullNghs:  1068 ave 1409 max 610 min
Histogram: 4 0 0 0 5 4 0 7 0 4

Total # of neighbors = 25632
Ave neighs/atom = 201.827
Neighbor list builds = 0
Dangerous builds = 0
Total wall time: 0:28:56
