LAMMPS (12 Dec 2018)
Processor partition = 4
units         metal
atom_style    atomic
neighbor      1.0 bin
neigh_modify  every 1 delay 0 check yes

boundary        p p p
atom_modify map array sort 0 0.0
variable	u uloop 8

read_data   initial.lammps
  orthogonal box = (0 0 0) to (10.0025 12.3537 10.615)
  2 by 4 by 3 MPI processor grid
  reading atoms ...
  127 atoms
pair_style  hybrid/overlay nnp3v nnp3v_vf
pair_coeff  * * nnp3v lammps-force.nnp Li P O
Reading potential file lammps-force.nnp with DATE: 20201105
pair_coeff  * * nnp3v_vf lammps_rot.nnp Li P O
Reading potential file lammps_rot.nnp with DATE: 20211226
min_style   quickmin
minimize    1.0e-6 1.0e-4 1000 10000
Neighbor list info ...
  update every 1 steps, delay 0 steps, check yes
  max neighbors/atom: 2000, page size: 100000
  master list distance cutoff = 8
  ghost atom cutoff = 8
  binsize = 4, bins = 3 4 3
  2 neighbor lists, perpetual/occasional/extra = 2 0 0
  (1) pair nnp3v, perpetual
      attributes: full, newton on
      pair build: full/bin/atomonly
      stencil: full/bin/3d
      bin: standard
  (2) pair nnp3v_vf, perpetual, copy from (1)
      attributes: full, newton on
      pair build: copy
      stencil: none
      bin: none
Per MPI rank memory allocation (min/avg/max) = 3.111 | 3.226 | 3.362 Mbytes
Step Temp E_pair E_mol TotEng Press 
       0            0   -796.79482            0   -796.79482    13324.103 
      24   0.66844098   -796.99042            0   -796.97954    13893.519 
Loop time of 14.5331 on 24 procs for 24 steps with 127 atoms

98.2% CPU use with 24 MPI tasks x no OpenMP threads

Minimization stats:
  Stopping criterion = energy tolerance
  Energy initial, next-to-last, final = 
        -796.794816724     -796.990398619     -796.990424995
  Force two-norm initial, final = 1.98977 0.177561
  Force max component initial, final = 0.330078 0.036579
  Final line search alpha, max atom move = 0 0
  Iterations, force evaluations = 24 24

MPI task timing breakdown:
Section |  min time  |  avg time  |  max time  |%varavg| %total
---------------------------------------------------------------
Pair    | 6.0625     | 10.736     | 14.53      |  77.2 | 73.87
Neigh   | 0          | 0          | 0          |   0.0 |  0.00
Comm    | 0.0018759  | 3.7964     | 8.4694     | 129.8 | 26.12
Output  | 0          | 0          | 0          |   0.0 |  0.00
Modify  | 0          | 0          | 0          |   0.0 |  0.00
Other   |            | 0.001194   |            |       |  0.01

Nlocal:    5.29167 ave 7 max 3 min
Histogram: 4 0 0 0 0 9 0 7 0 4
Nghost:    759.125 ave 797 max 714 min
Histogram: 7 1 0 0 0 2 6 0 0 8
Neighs:    0 ave 0 max 0 min
Histogram: 24 0 0 0 0 0 0 0 0 0
FullNghs:  1068 ave 1413 max 614 min
Histogram: 4 0 0 0 5 4 0 7 0 4

Total # of neighbors = 25632
Ave neighs/atom = 201.827
Neighbor list builds = 0
Dangerous builds = 0

reset_timestep	0

#timestep   0.001
#velocity   all create 1000 87287

dump   1 all atom 1 dump.neb.$u
dump   1 all atom 1 dump.neb.5
fix    2 all neb 1.0 parallel neigh
dump   2 all atom 1 test.dump

thermo          1
neb 0.00000000001 0.0 10000 5000 1 final final.lammps
Per MPI rank memory allocation (min/avg/max) = 5.112 | 5.226 | 5.362 Mbytes
Step Temp E_pair E_mol TotEng Press 
       0            0   -794.69816            0   -794.69816    16098.178 
       1    4.8945776   -794.69816            0   -794.61844    16163.093 
       2    19.557655   -794.84287            0   -794.52434    16257.365 
       3    42.047512   -795.09402            0    -794.4092    16413.524 
       4    66.286277   -795.38319            0    -794.3036    16635.826 
       5    86.224384   -795.64923            0   -794.24491    16871.813 
       6    97.672464   -795.86048            0   -794.26971    16976.781 
       7    96.567204   -796.01659            0   -794.44382    16745.088 
       8    88.525034   -796.13318            0   -794.69139    16228.261 
       9    85.549855   -796.22122            0   -794.82789    15796.563 
      10    81.474368   -796.28653            0   -794.95958     15562.18 
      11    75.555315   -796.33447            0   -795.10392    15438.911 
      12    72.145394    -796.3657            0   -795.19068    15359.678 
      13    52.169776   -796.37322            0   -795.52354    15196.675 
      14  0.033360494   -796.37322            0   -796.37268    14505.213 
      15    0.1491548   -796.37432            0   -796.37189    14501.963 
      16   0.34551431   -796.37636            0   -796.37074    14495.489 
      17   0.59607973   -796.37905            0   -796.36934    14486.668 
      18   0.85346904   -796.38197            0   -796.36807    14476.763 
      19     1.038214   -796.38472            0   -796.36781    14467.151 
      20    1.0410375   -796.38715            0    -796.3702    14459.001 
      21   0.89194509   -796.38948            0   -796.37495    14454.166 
      22   0.88084413   -796.39199            0   -796.37764    14455.191 
      23    1.0232913   -796.39475            0   -796.37809    14460.128 
      24    1.2097181   -796.39774            0   -796.37804    14466.225 
      25    1.4119671   -796.40092            0   -796.37792    14472.625 
      26    1.6252293   -796.40425            0   -796.37778    14479.226 
      27    1.8475557   -796.40771            0   -796.37762    14486.073 
      28    2.0774553   -796.41127            0   -796.37744    14493.191 
      29    2.3133972   -796.41492            0   -796.37725    14500.568 
      30    2.5538036   -796.41863            0   -796.37704    14508.165 
      31    2.7970494   -796.42238            0   -796.37683    14515.917 
      32    3.0414667   -796.42616            0   -796.37662    14523.764 
      33    3.2853644   -796.42994            0   -796.37643     14531.63 
      34     3.527026    -796.4337            0   -796.37626    14539.438 
      35    3.7647455   -796.43745            0   -796.37614    14547.076 
      36    3.9968131   -796.44116            0   -796.37607     14554.49 
      37    4.2215891   -796.44481            0   -796.37605    14561.621 
      38    4.4374949   -796.44839            0   -796.37612    14568.412 
      39    4.6430034    -796.4519            0   -796.37628    14574.795 
      40    4.8368201   -796.45532            0   -796.37655    14580.733 
      41    5.0174987   -796.45866            0   -796.37694    14586.148 
      42    5.1844481    -796.4619            0   -796.37746    14591.199 
      43    5.3355279   -796.46502            0   -796.37812    14595.001 
      44    5.4910123     -796.468            0   -796.37857     14601.75 
      45    5.9557102   -796.47046            0   -796.37346    14596.899 
      46    4.8692676   -796.47092            0   -796.39162    14611.826 
      47 0.0029731893   -796.47092            0   -796.47087    14547.287 
      48  0.014355813   -796.47104            0   -796.47081    14546.253 
      49  0.033686413   -796.47126            0   -796.47071    14544.215 
      50  0.057459422   -796.47154            0   -796.47061    14541.351 
      51  0.079169718   -796.47185            0   -796.47056    14537.978 
      52  0.088983814   -796.47215            0    -796.4707    14534.588 
      53  0.080677779   -796.47242            0   -796.47111    14531.864 
      54  0.069597267   -796.47269            0   -796.47156    14530.406 
      55  0.073758287   -796.47298            0   -796.47178    14530.108 
      56  0.087725452   -796.47329            0   -796.47186    14530.364 
      57   0.10478354   -796.47363            0   -796.47193    14530.771 
      58   0.12329899     -796.474            0     -796.472    14531.195 
      59   0.14305804    -796.4744            0   -796.47207    14531.619 
      60   0.16398269   -796.47483            0   -796.47216    14532.045 
      61   0.18599104   -796.47528            0   -796.47225    14532.479 
      62   0.20899608   -796.47575            0   -796.47234    14532.921 
      63   0.23290684   -796.47624            0   -796.47245    14533.369 
      64   0.25762903   -796.47676            0   -796.47256    14533.821 
      65   0.28306569   -796.47729            0   -796.47268    14534.275 
      66   0.30911802   -796.47784            0   -796.47281    14534.727 
      67   0.33568511   -796.47842            0   -796.47295    14535.176 
      68   0.36266474   -796.47901            0    -796.4731    14535.614 
      69   0.38995716   -796.47961            0   -796.47326    14536.038 
      70   0.41745863   -796.48022            0   -796.47342    14536.444 
      71   0.44506811   -796.48085            0    -796.4736    14536.829 
      72   0.47268609   -796.48148            0   -796.47378    14537.188 
      73   0.50021308   -796.48212            0   -796.47397    14537.517 
      74   0.52755298   -796.48276            0   -796.47417    14537.812 
      75   0.55461353   -796.48341            0   -796.47438    14538.067 
      76   0.58130505   -796.48406            0    -796.4746    14538.278 
      77   0.60754252   -796.48472            0   -796.47482    14538.441 
      78   0.63324768   -796.48537            0   -796.47506    14538.552 
      79   0.65832802   -796.48602            0    -796.4753    14538.601 
      80   0.68279575   -796.48667            0   -796.47555    14538.596 
      81   0.70629088   -796.48732            0   -796.47581    14538.455 
      82    0.7304592   -796.48795            0   -796.47605    14538.489 
      83   0.75566386   -796.48859            0   -796.47628    14537.483 
      84    0.8719199    -796.4889            0    -796.4747    14542.009 
      85   0.16892168   -796.48918            0   -796.48643    14529.831 
      86  0.039155985   -796.48932            0   -796.48868    14527.756 
      87  0.039223896   -796.48945            0   -796.48881    14527.721 
      88  0.044245091   -796.48958            0   -796.48886    14527.604 
      89  0.049782033   -796.48972            0   -796.48891    14527.508 
      90  0.055541723   -796.48987            0   -796.48897    14527.378 
      91  0.061556199   -796.49003            0   -796.48902    14527.242 
      92  0.067780215   -796.49019            0   -796.48909    14527.085 
      93  0.074215017   -796.49036            0   -796.48915    14526.917 
      94  0.080829527   -796.49053            0   -796.48922    14526.727 
      95   0.08761935   -796.49071            0   -796.48929    14526.523 
      96  0.094553639    -796.4909            0   -796.48936    14526.294 
      97   0.10163107   -796.49109            0   -796.48943    14526.052 
      98   0.10881276   -796.49128            0   -796.48951    14525.778 
      99   0.11611298   -796.49148            0   -796.48959    14525.495 
     100    0.1234634   -796.49168            0   -796.48967    14525.165 
     101   0.13093985   -796.49188            0   -796.48975    14524.852 
     102    0.1383512   -796.49209            0   -796.48984    14524.427 
     103   0.14606289   -796.49229            0   -796.48992    14524.155 
     104    0.1532947   -796.49251            0   -796.49001    14523.438 
     105    0.1626112   -796.49271            0   -796.49006    14523.718 
     106   0.17222941   -796.49292            0   -796.49011    14521.479 
     107   0.18513083   -796.49303            0   -796.49001     14524.91 
     108  0.055516804   -796.49313            0   -796.49222    14520.432 
     109  0.014685363   -796.49318            0   -796.49294    14519.874 
     110  0.016745691   -796.49325            0   -796.49297    14519.699 
     111  0.019133966   -796.49331            0     -796.493    14519.526 
     112  0.021652769   -796.49338            0   -796.49303    14519.331 
     113   0.02430524   -796.49346            0   -796.49306    14519.121 
     114  0.027082719   -796.49354            0   -796.49309    14518.894 
     115  0.029980735   -796.49362            0   -796.49313    14518.651 
     116  0.032992584    -796.4937            0   -796.49317    14518.391 
     117   0.03611268   -796.49379            0    -796.4932    14518.113 
     118  0.039334371   -796.49388            0   -796.49324    14517.816 
     119  0.042651766   -796.49398            0   -796.49329    14517.502 
     120  0.046058057   -796.49408            0   -796.49333    14517.167 
     121  0.049547412   -796.49418            0   -796.49337    14516.813 
     122  0.053112711   -796.49428            0   -796.49342    14516.438 
     123  0.056748707   -796.49439            0   -796.49347    14516.043 
     124  0.060447304    -796.4945            0   -796.49352    14515.624 
     125  0.064205605   -796.49461            0   -796.49357    14515.185 
     126  0.068011405   -796.49473            0   -796.49362    14514.719 
     127  0.071871623   -796.49484            0   -796.49367    14514.237 
     128    0.0757522   -796.49496            0   -796.49373    14513.712 
     129  0.079715538   -796.49508            0   -796.49378      14513.2 
     130  0.083583254    -796.4952            0   -796.49384    14512.549 
     131  0.087833228   -796.49532            0   -796.49389    14512.178 
     132  0.091236138   -796.49544            0   -796.49395    14510.914 
     133  0.097122776   -796.49553            0   -796.49395    14512.155 
     134  0.055948805    -796.4956            0   -796.49469    14508.834 
     135 0.0059124538   -796.49562            0   -796.49552    14508.766 
     136 0.0044195231   -796.49564            0   -796.49557    14508.957 
     137 0.0045441735   -796.49566            0   -796.49559    14508.898 
     138 0.0053588608   -796.49569            0    -796.4956    14508.758 
     139 0.0062995392   -796.49572            0   -796.49562    14508.593 
     140 0.0073144118   -796.49575            0   -796.49563    14508.411 
     141 0.0083990943   -796.49578            0   -796.49565    14508.215 
     142 0.0095518177   -796.49582            0   -796.49567    14508.003 
     143  0.010770813   -796.49586            0   -796.49568    14507.775 
     144  0.012054213    -796.4959            0    -796.4957    14507.532 
     145  0.013400079   -796.49594            0   -796.49572    14507.273 
     146  0.014806397   -796.49599            0   -796.49575    14506.998 
     147  0.016271098   -796.49603            0   -796.49577    14506.707 
     148  0.017792057   -796.49608            0   -796.49579    14506.399 
     149  0.019367101   -796.49613            0   -796.49582    14506.075 
     150  0.020994026   -796.49618            0   -796.49584    14505.734 
     151    0.0226706   -796.49624            0   -796.49587    14505.375 
     152  0.024394566   -796.49629            0    -796.4959    14504.998 
     153  0.026163675   -796.49635            0   -796.49593    14504.604 
     154  0.027975677   -796.49641            0   -796.49596    14504.193 
     155   0.02982833   -796.49647            0   -796.49599    14503.762 
     156  0.031719418   -796.49654            0   -796.49602    14503.314 
     157  0.033646726    -796.4966            0   -796.49605    14502.846 
     158  0.035608107   -796.49666            0   -796.49608     14502.36 
     159  0.037601457   -796.49673            0   -796.49612    14501.854 
     160  0.039624667    -796.4968            0   -796.49615    14501.329 
     161  0.041675867   -796.49687            0   -796.49619    14500.784 
     162  0.043752759   -796.49694            0   -796.49623    14500.219 
     163  0.045854538   -796.49701            0   -796.49626    14499.634 
     164  0.047975991   -796.49708            0    -796.4963    14499.026 
     165     0.050125   -796.49716            0   -796.49634    14498.408 
     166  0.052249255   -796.49723            0   -796.49638    14497.729 
     167  0.054324296   -796.49731            0   -796.49642    14497.169 
     168  0.053831653   -796.49738            0   -796.49651     14496.06 
     169  0.034061019   -796.49743            0   -796.49687    14496.384 
     170 0.00081056465   -796.49743            0   -796.49742    14495.635 
     171 0.0010669328   -796.49744            0   -796.49743    14495.318 
     172 0.0013262571   -796.49745            0   -796.49743    14495.055 
     173 0.0016040975   -796.49747            0   -796.49744    14494.876 
     174 0.0019471661   -796.49748            0   -796.49745    14494.736 
     175 0.0023321212   -796.49749            0   -796.49746    14494.598 
     176  0.002749955   -796.49751            0   -796.49747     14494.45 
     177 0.0032003613   -796.49753            0   -796.49748    14494.288 
     178 0.0036830502   -796.49755            0   -796.49749    14494.113 
     179 0.0041974919   -796.49757            0    -796.4975    14493.925 
     180 0.0047431168   -796.49759            0   -796.49751    14493.724 
     181 0.0053193334   -796.49761            0   -796.49752    14493.511 
     182 0.0059255196   -796.49763            0   -796.49754    14493.284 
     183 0.0065610074   -796.49766            0   -796.49755    14493.044 
     184 0.0072251173   -796.49769            0   -796.49757     14492.79 
     185 0.0079171422   -796.49771            0   -796.49759    14492.523 
     186 0.0086363539   -796.49774            0    -796.4976    14492.243 
     187 0.0093820039   -796.49777            0   -796.49762    14491.949 
     188  0.010153327   -796.49781            0   -796.49764    14491.642 
     189  0.010949537   -796.49784            0   -796.49766    14491.321 
     190  0.011769838   -796.49787            0   -796.49768    14490.986 
     191  0.012613419   -796.49791            0    -796.4977    14490.638 
     192  0.013479459   -796.49794            0   -796.49772    14490.276 
     193  0.014367131   -796.49798            0   -796.49775      14489.9 
     194  0.015275591   -796.49802            0   -796.49777     14489.51 
     195  0.016204006   -796.49806            0   -796.49779    14489.106 
     196  0.017151512    -796.4981            0   -796.49782    14488.686 
     197  0.018117057   -796.49814            0   -796.49785    14488.248 
     198  0.019099708   -796.49818            0   -796.49787    14487.796 
     199  0.020098954   -796.49823            0    -796.4979    14487.329 
     200  0.021113107   -796.49827            0   -796.49793    14486.846 
     201  0.022143974   -796.49831            0   -796.49795    14486.356 
     202  0.023182832   -796.49836            0   -796.49798     14485.83 
     203  0.024259591   -796.49841            0   -796.49801    14485.357 
     204  0.025323265   -796.49845            0   -796.49804    14484.646 
     205  0.027317004    -796.4985            0   -796.49806    14484.716 
     206  0.035573548   -796.49854            0   -796.49796    14482.273 
     207  0.029565728   -796.49856            0   -796.49808     14484.67 
     208 0.0011311176   -796.49857            0   -796.49855    14483.787 
     209 0.00092333104   -796.49857            0   -796.49856     14483.36 
     210 0.00072925295   -796.49858            0   -796.49857    14483.077 
     211 0.00075918964   -796.49859            0   -796.49858    14482.907 
     212 0.00090990581    -796.4986            0   -796.49858    14482.787 
     213  0.001096606    -796.4986            0   -796.49859    14482.675 
     214 0.0013014031   -796.49862            0   -796.49859    14482.557 
     215  0.001522956   -796.49863            0    -796.4986    14482.429 
     216 0.0017611665   -796.49864            0   -796.49861    14482.289 
     217 0.0020158229   -796.49865            0   -796.49862     14482.14 
     218 0.0022866835   -796.49866            0   -796.49863    14481.979 
     219 0.0025734927   -796.49868            0   -796.49864    14481.808 
     220 0.0028759798   -796.49869            0   -796.49865    14481.627 
     221 0.0031938597   -796.49871            0   -796.49866    14481.434 
     222 0.0035268333   -796.49873            0   -796.49867    14481.232 
     223 0.0038745878   -796.49874            0   -796.49868    14481.018 
     224 0.0042367972   -796.49876            0   -796.49869    14480.794 
     225  0.004613123   -796.49878            0   -796.49871     14480.56 
     226 0.0050032147    -796.4988            0   -796.49872    14480.315 
     227 0.0054067102   -796.49882            0   -796.49874    14480.059 
     228 0.0058232362   -796.49884            0   -796.49875    14479.793 
     229 0.0062524085   -796.49887            0   -796.49877    14479.516 
     230  0.006693834   -796.49889            0   -796.49878    14479.229 
     231 0.0071471083   -796.49892            0    -796.4988    14478.931 
     232 0.0076118339   -796.49894            0   -796.49882    14478.623 
     233 0.0080875911   -796.49897            0   -796.49884    14478.305 
     234 0.0085739525   -796.49899            0   -796.49886    14477.975 
     235 0.0090704981   -796.49902            0   -796.49888    14477.636 
     236 0.0095767445   -796.49905            0    -796.4989    14477.285 
     237  0.010092284   -796.49908            0   -796.49892    14476.925 
     238  0.010616553   -796.49911            0   -796.49894    14476.553 
     239  0.011149372   -796.49914            0   -796.49896    14476.172 
     240  0.011689466   -796.49918            0   -796.49899    14475.779 
     241  0.012238833   -796.49921            0   -796.49901    14475.378 
     242  0.012789308   -796.49924            0   -796.49903    14474.959 
     243    0.0133693   -796.49928            0   -796.49906    14474.556 
     244  0.013914335   -796.49931            0   -796.49908    14474.055 
     245  0.015180199   -796.49934            0    -796.4991    14473.878 
     246  0.018550165   -796.49938            0   -796.49907    14472.802 
     247 0.0028954852   -796.49938            0   -796.49933    14472.906 
     248 0.0012556573   -796.49938            0   -796.49936    14472.981 
     249 0.00074322988   -796.49939            0   -796.49938    14472.883 
     250 0.0008622739    -796.4994            0   -796.49939    14472.781 
     251 0.00099322037   -796.49941            0   -796.49939    14472.669 
     252 0.0011328545   -796.49942            0    -796.4994    14472.549 
     253 0.0012811642   -796.49943            0   -796.49941    14472.421 
     254 0.0014379861   -796.49944            0   -796.49942    14472.284 
     255 0.0016031873   -796.49945            0   -796.49943     14472.14 
     256 0.0017766117   -796.49946            0   -796.49943    14471.987 
     257 0.0019581037   -796.49948            0   -796.49944    14471.826 
     258 0.0021474949   -796.49949            0   -796.49945    14471.657 
     259 0.0023446135    -796.4995            0   -796.49946     14471.48 
     260 0.0025492755   -796.49952            0   -796.49948    14471.294 
     261 0.0027612953   -796.49953            0   -796.49949    14471.101 
     262  0.002980475   -796.49955            0    -796.4995    14470.899 
     263 0.0032066165   -796.49956            0   -796.49951     14470.69 
     264 0.0034395039   -796.49958            0   -796.49953    14470.472 
     265  0.003678934    -796.4996            0   -796.49954    14470.247 
     266 0.0039246642   -796.49962            0   -796.49955    14470.014 
     267 0.0041765077   -796.49964            0   -796.49957    14469.772 
     268 0.0044341494   -796.49965            0   -796.49958    14469.523 
     269 0.0046975274   -796.49967            0    -796.4996    14469.266 
     270 0.0049659914   -796.49969            0   -796.49961    14469.001 
     271 0.0052402852   -796.49972            0   -796.49963     14468.73 
     272 0.0055176441   -796.49974            0   -796.49965    14468.445 
     273 0.0058050135   -796.49976            0   -796.49966     14468.17 
     274 0.0060849474   -796.49978            0   -796.49968    14467.838 
     275 0.0064425926    -796.4998            0    -796.4997    14467.649 
     276 0.0069430922   -796.49983            0   -796.49972    14467.001 
     277 0.0085797285   -796.49984            0    -796.4997    14467.648 
     278 0.0016871584   -796.49985            0   -796.49982    14467.028 
     279 0.0005238299   -796.49986            0   -796.49985    14466.806 
     280 0.00048780743   -796.49986            0   -796.49985    14466.729 
     281 0.00056509068   -796.49987            0   -796.49986    14466.641 
     282 0.00064831444   -796.49988            0   -796.49987    14466.548 
     283 0.00073688497   -796.49988            0   -796.49987    14466.447 
     284 0.00083079705   -796.49989            0   -796.49988     14466.34 
     285 0.00092993773    -796.4999            0   -796.49989    14466.226 
     286 0.0010342277   -796.49991            0   -796.49989    14466.106 
     287 0.0011435629   -796.49992            0    -796.4999    14465.979 
     288 0.0012578471   -796.49993            0   -796.49991    14465.846 
     289 0.0013769692   -796.49994            0   -796.49992    14465.706 
     290 0.0015008222   -796.49995            0   -796.49993     14465.56 
     291 0.0016292854   -796.49996            0   -796.49994    14465.407 
     292 0.0017622441   -796.49997            0   -796.49995    14465.247 
     293 0.0018995659   -796.49999            0   -796.49996    14465.081 
     294 0.0020411323       -796.5            0   -796.49997    14464.909 
     295  0.002186793   -796.50001            0   -796.49998     14464.73 
     296 0.0023364389   -796.50003            0   -796.49999    14464.545 
     297  0.002489874   -796.50004            0       -796.5    14464.354 
     298 0.0026470585   -796.50006            0   -796.50001    14464.156 
     299 0.0028076217   -796.50007            0   -796.50003    14463.952 
     300 0.0029719027   -796.50009            0   -796.50004    14463.743 
     301 0.0031385877   -796.50011            0   -796.50005    14463.524 
     302 0.0033104437   -796.50012            0   -796.50007    14463.309 
     303 0.0034798986   -796.50014            0   -796.50008    14463.062 
     304 0.0036702315   -796.50016            0    -796.5001     14462.88 
     305  0.003839352   -796.50018            0   -796.50011     14462.49 
     306 0.0042049876   -796.50019            0   -796.50012    14462.695 
     307 0.0023191567    -796.5002            0   -796.50016    14462.055 
     308 0.00030731399    -796.5002            0    -796.5002     14462.14 
     309 0.00021502705   -796.50021            0    -796.5002    14462.137 
     310 0.00023884195   -796.50021            0   -796.50021    14462.087 
     311 0.00028216785   -796.50022            0   -796.50021    14462.026 
     312 0.0003296338   -796.50022            0   -796.50021    14461.958 
     313 0.00038064516   -796.50023            0   -796.50022    14461.886 
     314 0.00043514303   -796.50023            0   -796.50022    14461.808 
     315 0.00049307805   -796.50024            0   -796.50023    14461.724 
     316 0.00055439577   -796.50024            0   -796.50024    14461.635 
     317 0.00061903885   -796.50025            0   -796.50024    14461.541 
     318 0.00068694642   -796.50026            0   -796.50025    14461.441 
     319 0.00075805444   -796.50027            0   -796.50026    14461.337 
     320 0.0008322956   -796.50028            0   -796.50026    14461.226 
     321 0.00090959947   -796.50028            0   -796.50027    14461.111 
     322 0.00098989247   -796.50029            0   -796.50028     14460.99 
     323 0.0010730981    -796.5003            0   -796.50029    14460.865 
     324 0.0011591367   -796.50031            0   -796.50029    14460.734 
     325 0.0012479259   -796.50032            0    -796.5003    14460.597 
     326 0.0013393803   -796.50033            0   -796.50031    14460.456 
     327 0.0014334119   -796.50035            0   -796.50032     14460.31 
     328 0.0015299299   -796.50036            0   -796.50033    14460.158 
     329 0.0016288413   -796.50037            0   -796.50034    14460.002 
     330 0.0017300493   -796.50038            0   -796.50035     14459.84 
     331 0.0018334577   -796.50039            0   -796.50036    14459.674 
     332 0.0019389606   -796.50041            0   -796.50038    14459.502 
     333  0.002046468   -796.50042            0   -796.50039    14459.326 
     334 0.0021558417   -796.50044            0    -796.5004    14459.144 
     335 0.0022670653   -796.50045            0   -796.50041    14458.959 
     336 0.0023797731   -796.50046            0   -796.50043    14458.767 
     337 0.0024946206   -796.50048            0   -796.50044    14458.574 
     338 0.0026091314    -796.5005            0   -796.50045    14458.366 
     339 0.0027315439   -796.50051            0   -796.50047    14458.188 
     340 0.0028403489   -796.50053            0   -796.50048    14457.888 
     341 0.0030566705   -796.50054            0   -796.50049    14457.999 
     342 0.0017042771   -796.50055            0   -796.50052    14457.451 
     343 7.1510708e-05   -796.50055            0   -796.50055     14457.49 
     344 7.5516998e-05   -796.50055            0   -796.50055    14457.535 
     345 7.5782578e-05   -796.50055            0   -796.50055    14457.548 
     346 8.5570329e-05   -796.50056            0   -796.50056    14457.533 
     347 0.00010380737   -796.50056            0   -796.50056    14457.502 
     348 0.00012585551   -796.50056            0   -796.50056    14457.462 
     349 0.00015026395   -796.50057            0   -796.50056    14457.416 
     350 0.0001767989   -796.50057            0   -796.50057    14457.367 
     351 0.00020540914   -796.50057            0   -796.50057    14457.313 
     352 0.0002360651   -796.50058            0   -796.50058    14457.255 
     353 0.00026873794   -796.50058            0   -796.50058    14457.193 
     354 0.00030339664   -796.50059            0   -796.50058    14457.127 
     355 0.00034000822   -796.50059            0   -796.50059    14457.057 
     356 0.00037853769    -796.5006            0   -796.50059    14456.983 
     357 0.00041894809   -796.50061            0    -796.5006    14456.905 
     358 0.00046120058   -796.50061            0   -796.50061    14456.822 
     359 0.00050525444   -796.50062            0   -796.50061    14456.736 
     360 0.00055106708   -796.50063            0   -796.50062    14456.645 
     361 0.00059859405   -796.50063            0   -796.50062    14456.551 
     362 0.00064778919   -796.50064            0   -796.50063    14456.453 
     363 0.00069860456   -796.50065            0   -796.50064     14456.35 
     364 0.0007509906   -796.50066            0   -796.50065    14456.244 
     365 0.00080489613   -796.50067            0   -796.50065    14456.134 
     366 0.00086026821   -796.50068            0   -796.50066     14456.02 
     367 0.00091705246   -796.50069            0   -796.50067    14455.902 
     368 0.00097519294    -796.5007            0   -796.50068    14455.781 
     369 0.0010346324   -796.50071            0   -796.50069    14455.655 
     370  0.001095312   -796.50072            0    -796.5007    14455.526 
     371  0.001157172   -796.50073            0   -796.50071    14455.393 
     372 0.0012201498   -796.50074            0   -796.50072    14455.257 
     373 0.0012841856   -796.50075            0   -796.50073    14455.116 
     374 0.0013492081   -796.50076            0   -796.50074    14454.973 
     375 0.0014151731   -796.50077            0   -796.50075    14454.825 
     376  0.001481946   -796.50078            0   -796.50076    14454.674 
     377 0.0015496401    -796.5008            0   -796.50077    14454.521 
     378 0.0016171391   -796.50081            0   -796.50078     14454.36 
     379 0.0016831199   -796.50082            0    -796.5008    14454.211 
     380 0.0016912813   -796.50084            0   -796.50081    14454.005 
     381 0.0012169439   -796.50085            0   -796.50083    14453.999 
     382 8.0425669e-05   -796.50085            0   -796.50085    14453.888 
     383 9.275443e-05   -796.50085            0   -796.50085    14453.827 
     384 0.00010441712   -796.50086            0   -796.50085     14453.79 
     385 0.00012118454   -796.50086            0   -796.50086    14453.749 
     386 0.00013920258   -796.50086            0   -796.50086    14453.704 
     387 0.00015839125   -796.50087            0   -796.50086    14453.657 
     388 0.00017874341   -796.50087            0   -796.50087    14453.606 
     389 0.00020023521   -796.50088            0   -796.50087    14453.552 
     390 0.00022284796   -796.50088            0   -796.50088    14453.496 
     391 0.00024655841   -796.50088            0   -796.50088    14453.436 
     392 0.00027134448   -796.50089            0   -796.50089    14453.373 
     393 0.00029718112    -796.5009            0   -796.50089    14453.307 
     394 0.00032404393    -796.5009            0    -796.5009    14453.237 
     395 0.00035190559   -796.50091            0    -796.5009    14453.165 
     396 0.00038073998   -796.50091            0   -796.50091     14453.09 
     397 0.00041051697   -796.50092            0   -796.50091    14453.012 
     398 0.00044120978   -796.50093            0   -796.50092    14452.931 
     399 0.00047278384   -796.50093            0   -796.50093    14452.847 
     400 0.00050521529   -796.50094            0   -796.50093     14452.76 
     401 0.00053845796   -796.50095            0   -796.50094     14452.67 
     402 0.00057250689   -796.50096            0   -796.50095    14452.577 
     403 0.0006072677   -796.50097            0   -796.50096    14452.481 
     404 0.0006428425   -796.50097            0   -796.50096    14452.384 
     405 0.00067885944   -796.50098            0   -796.50097     14452.28 
     406 0.00071610101   -796.50099            0   -796.50098    14452.181 
     407 0.00075205304     -796.501            0   -796.50099    14452.061 
     408 0.00079157832   -796.50101            0     -796.501    14451.991 
     409 0.00080172794   -796.50102            0   -796.50101    14451.777 
     410 0.00063856565   -796.50102            0   -796.50101    14451.913 
     411 7.9158488e-05   -796.50103            0   -796.50103    14451.798 
     412 5.3995775e-05   -796.50103            0   -796.50103    14451.735 
     413 5.5120262e-05   -796.50103            0   -796.50103    14451.703 
     414 6.5172702e-05   -796.50103            0   -796.50103    14451.674 
     415 7.608186e-05   -796.50104            0   -796.50104    14451.641 
     416 8.7798764e-05   -796.50104            0   -796.50104    14451.606 
     417 0.00010031102   -796.50104            0   -796.50104    14451.569 
     418 0.00011360678   -796.50105            0   -796.50105    14451.529 
     419 0.0001276731   -796.50105            0   -796.50105    14451.486 
     420 0.00014249636   -796.50105            0   -796.50105    14451.441 
     421 0.00015806211   -796.50106            0   -796.50106    14451.393 
     422 0.00017435514   -796.50106            0   -796.50106    14451.343 
     423 0.00019135948   -796.50107            0   -796.50106     14451.29 
     424 0.00020905846   -796.50107            0   -796.50107    14451.235 
     425 0.00022743464   -796.50108            0   -796.50107    14451.177 
     426 0.0002464699   -796.50108            0   -796.50108    14451.117 
     427 0.00026614541   -796.50109            0   -796.50108    14451.055 
     428 0.00028644172   -796.50109            0   -796.50109     14450.99 
     429 0.00030733864    -796.5011            0    -796.5011    14450.922 
     430 0.00032881547   -796.50111            0    -796.5011    14450.853 
     431 0.00035085068   -796.50111            0   -796.50111     14450.78 
     432 0.00037342256   -796.50112            0   -796.50111    14450.706 
     433 0.00039650798   -796.50113            0   -796.50112    14450.629 
     434 0.00042008514   -796.50113            0   -796.50113     14450.55 
     435 0.00044412724   -796.50114            0   -796.50113    14450.469 
     436 0.00046861811   -796.50115            0   -796.50114    14450.385 
     437 0.00049351177   -796.50116            0   -796.50115    14450.299 
     438 0.00051884261   -796.50117            0   -796.50116    14450.212 
     439 0.00054440546   -796.50117            0   -796.50116     14450.12 
     440 0.00057069654   -796.50118            0   -796.50117    14450.032 
     441 0.0005956296   -796.50119            0   -796.50118    14449.924 
     442 0.00062204567    -796.5012            0   -796.50119    14449.875 
     443 0.00058626538   -796.50121            0    -796.5012     14449.65 
     444 0.00016971162   -796.50121            0   -796.50121    14449.752 
     445 3.2318942e-05   -796.50121            0   -796.50121    14449.704 
     446 3.419586e-05   -796.50121            0   -796.50121     14449.68 
     447 4.0484181e-05   -796.50122            0   -796.50122    14449.657 
     448 4.7294229e-05   -796.50122            0   -796.50122    14449.632 
     449 5.4611353e-05   -796.50122            0   -796.50122    14449.605 
     450 6.2427374e-05   -796.50122            0   -796.50122    14449.575 
     451 7.0734953e-05   -796.50123            0   -796.50123    14449.544 
     452 7.952596e-05   -796.50123            0   -796.50123    14449.511 
     453 8.8791872e-05   -796.50123            0   -796.50123    14449.476 
     454 9.852362e-05   -796.50124            0   -796.50124    14449.438 
     455 0.00010871169   -796.50124            0   -796.50124    14449.399 
     456 0.00011934606   -796.50124            0   -796.50124    14449.358 
     457 0.00013041629   -796.50125            0   -796.50125    14449.315 
     458 0.00014191143   -796.50125            0   -796.50125     14449.27 
     459 0.00015382014   -796.50126            0   -796.50126    14449.223 
     460 0.0001661306   -796.50126            0   -796.50126    14449.174 
     461 0.00017883062   -796.50127            0   -796.50126    14449.123 
     462 0.00019190752   -796.50127            0   -796.50127    14449.071 
     463 0.00020534838   -796.50128            0   -796.50127    14449.016 
     464 0.00021913958   -796.50128            0   -796.50128     14448.96 
     465 0.00023326775   -796.50129            0   -796.50129    14448.902 
     466 0.00024771784   -796.50129            0   -796.50129    14448.842 
     467 0.00026247743    -796.5013            0    -796.5013     14448.78 
     468 0.00027752663   -796.50131            0    -796.5013    14448.717 
     469 0.00029286328   -796.50131            0   -796.50131    14448.652 
     470 0.00030843647   -796.50132            0   -796.50132    14448.584 
     471 0.00032432944   -796.50133            0   -796.50132    14448.517 
     472 0.00034021101   -796.50133            0   -796.50133    14448.443 
     473 0.00035688206   -796.50134            0   -796.50134    14448.381 
     474 0.00036981749   -796.50135            0   -796.50134    14448.277 
     475 0.00037043172   -796.50136            0   -796.50135    14448.305 
     476 0.00015745105   -796.50136            0   -796.50136    14448.147 
     477 1.3022128e-05   -796.50136            0   -796.50136    14448.166 
     478 1.2946811e-05   -796.50136            0   -796.50136    14448.172 
     479 1.4468793e-05   -796.50136            0   -796.50136    14448.165 
     480 1.7519839e-05   -796.50136            0   -796.50136    14448.151 
     481 2.1127177e-05   -796.50137            0   -796.50137    14448.135 
     482 2.5086383e-05   -796.50137            0   -796.50137    14448.117 
     483 2.9375071e-05   -796.50137            0   -796.50137    14448.097 
     484 3.3987596e-05   -796.50137            0   -796.50137    14448.076 
     485 3.8919559e-05   -796.50137            0   -796.50137    14448.053 
     486 4.416619e-05   -796.50138            0   -796.50138    14448.029 
     487 4.9722405e-05   -796.50138            0   -796.50138    14448.003 
     488 5.5582795e-05   -796.50138            0   -796.50138    14447.975 
     489 6.1741642e-05   -796.50138            0   -796.50138    14447.946 
     490 6.8192916e-05   -796.50139            0   -796.50139    14447.916 
     491 7.4930284e-05   -796.50139            0   -796.50139    14447.884 
     492 8.1947116e-05   -796.50139            0   -796.50139     14447.85 
     493 8.9236496e-05    -796.5014            0    -796.5014    14447.815 
     494 9.6791224e-05    -796.5014            0    -796.5014    14447.778 
     495 0.00010460381   -796.50141            0    -796.5014     14447.74 
     496 0.0001126665   -796.50141            0   -796.50141      14447.7 
     497 0.00012097128   -796.50142            0   -796.50141    14447.659 
     498 0.00012950987   -796.50142            0   -796.50142    14447.616 
     499 0.00013827377   -796.50142            0   -796.50142    14447.572 
     500 0.00014725418   -796.50143            0   -796.50143    14447.527 
     501 0.00015644216   -796.50143            0   -796.50143     14447.48 
     502 0.00016582841   -796.50144            0   -796.50144    14447.431 
     503 0.00017540368   -796.50144            0   -796.50144    14447.382 
     504 0.00018515786   -796.50145            0   -796.50145    14447.331 
     505 0.0001950824   -796.50146            0   -796.50145    14447.278 
     506 0.00020516356   -796.50146            0   -796.50146    14447.224 
     507 0.00021540219   -796.50147            0   -796.50146    14447.169 
     508 0.00022575192   -796.50147            0   -796.50147    14447.113 
     509 0.00023631793   -796.50148            0   -796.50148    14447.056 
     510 0.00024662922   -796.50149            0   -796.50148    14446.992 
     511 0.00025763765   -796.50149            0   -796.50149    14446.952 
     512 0.00025552705    -796.5015            0    -796.5015    14446.826 
     513 0.00013098622    -796.5015            0    -796.5015    14446.911 
     514 2.2850795e-06    -796.5015            0    -796.5015    14446.894 
     515 3.3626925e-06    -796.5015            0    -796.5015    14446.875 
     516 4.3078392e-06    -796.5015            0    -796.5015    14446.855 
     517 5.1728651e-06   -796.50151            0    -796.5015    14446.838 
     518 6.3540352e-06   -796.50151            0   -796.50151    14446.825 
     519 7.9780425e-06   -796.50151            0   -796.50151    14446.813 
     520 9.8995487e-06   -796.50151            0   -796.50151    14446.802 
     521 1.2036836e-05   -796.50151            0   -796.50151     14446.79 
     522 1.4375727e-05   -796.50151            0   -796.50151    14446.776 
     523 1.6914767e-05   -796.50151            0   -796.50151    14446.762 
     524 1.9651931e-05   -796.50151            0   -796.50151    14446.746 
     525 2.2584598e-05   -796.50152            0   -796.50152    14446.729 
     526 2.5709943e-05   -796.50152            0   -796.50152    14446.711 
     527 2.9024943e-05   -796.50152            0   -796.50152    14446.691 
     528 3.2526379e-05   -796.50152            0   -796.50152     14446.67 
     529 3.621084e-05   -796.50153            0   -796.50153    14446.649 
     530 4.0074727e-05   -796.50153            0   -796.50153    14446.626 
     531 4.4114252e-05   -796.50153            0   -796.50153    14446.601 
     532 4.8325447e-05   -796.50153            0   -796.50153    14446.576 
     533 5.2704165e-05   -796.50154            0   -796.50154    14446.549 
     534 5.7246083e-05   -796.50154            0   -796.50154    14446.522 
     535 6.1946709e-05   -796.50154            0   -796.50154    14446.493 
     536 6.6801383e-05   -796.50155            0   -796.50155    14446.463 
     537 7.1805283e-05   -796.50155            0   -796.50155    14446.432 
     538 7.695343e-05   -796.50155            0   -796.50155      14446.4 
     539 8.224069e-05   -796.50156            0   -796.50156    14446.366 
     540 8.7661782e-05   -796.50156            0   -796.50156    14446.332 
     541 9.3211283e-05   -796.50157            0   -796.50157    14446.296 
     542 9.8883622e-05   -796.50157            0   -796.50157     14446.26 
     543 0.00010467312   -796.50158            0   -796.50157    14446.222 
     544 0.0001105739   -796.50158            0   -796.50158    14446.183 
     545 0.00011658014   -796.50159            0   -796.50158    14446.143 
     546 0.00012268544   -796.50159            0   -796.50159    14446.103 
     547 0.00012888457    -796.5016            0   -796.50159    14446.061 
     548 0.00013516827    -796.5016            0    -796.5016    14446.018 
     549 0.00014153993   -796.50161            0    -796.5016    14445.974 
     550 0.00014795747   -796.50161            0   -796.50161    14445.929 
     551 0.00015452643   -796.50162            0   -796.50161    14445.885 
     552 0.00016055004   -796.50162            0   -796.50162    14445.831 
     553 0.00016467971   -796.50163            0   -796.50163    14445.816 
     554 0.00011605162   -796.50163            0   -796.50163    14445.698 
     555 1.2217075e-06   -796.50163            0   -796.50163    14445.705 
     556 1.9523792e-06   -796.50163            0   -796.50163    14445.715 
     557 2.694463e-06   -796.50163            0   -796.50163    14445.726 
     558 3.2873819e-06   -796.50163            0   -796.50163    14445.734 
     559 3.7817371e-06   -796.50163            0   -796.50163    14445.735 
     560 4.5512438e-06   -796.50164            0   -796.50164    14445.731 
     561 5.6235769e-06   -796.50164            0   -796.50164    14445.724 
     562 6.8648227e-06   -796.50164            0   -796.50164    14445.715 
     563 8.2339767e-06   -796.50164            0   -796.50164    14445.705 
     564 9.7243831e-06   -796.50164            0   -796.50164    14445.695 
     565 1.1333993e-05   -796.50164            0   -796.50164    14445.683 
     566 1.3061251e-05   -796.50164            0   -796.50164     14445.67 
     567 1.4904499e-05   -796.50164            0   -796.50164    14445.657 
     568 1.6861958e-05   -796.50165            0   -796.50165    14445.642 
     569 1.8931732e-05   -796.50165            0   -796.50165    14445.627 
     570 2.1111807e-05   -796.50165            0   -796.50165     14445.61 
     571 2.3400059e-05   -796.50165            0   -796.50165    14445.593 
     572 2.5794247e-05   -796.50166            0   -796.50165    14445.575 
     573 2.8292023e-05   -796.50166            0   -796.50166    14445.556 
     574 3.0890932e-05   -796.50166            0   -796.50166    14445.536 
     575 3.3588411e-05   -796.50166            0   -796.50166    14445.515 
     576 3.6381794e-05   -796.50167            0   -796.50166    14445.494 
     577 3.9268316e-05   -796.50167            0   -796.50167    14445.471 
     578 4.2245112e-05   -796.50167            0   -796.50167    14445.448 
     579 4.5309224e-05   -796.50167            0   -796.50167    14445.424 
     580 4.8457595e-05   -796.50168            0   -796.50168    14445.399 
     581 5.1687089e-05   -796.50168            0   -796.50168    14445.373 
     582 5.4994464e-05   -796.50168            0   -796.50168    14445.346 
     583 5.8376429e-05   -796.50169            0   -796.50169    14445.318 
     584 6.1829529e-05   -796.50169            0   -796.50169     14445.29 
     585 6.5350444e-05    -796.5017            0   -796.50169    14445.261 
     586 6.8935194e-05    -796.5017            0    -796.5017    14445.231 
     587 7.2581413e-05    -796.5017            0    -796.5017      14445.2 
     588 7.6281498e-05   -796.50171            0   -796.50171    14445.169 
     589 8.0043993e-05   -796.50171            0   -796.50171    14445.137 
     590 8.3818952e-05   -796.50172            0   -796.50172    14445.103 
     591 8.7713579e-05   -796.50172            0   -796.50172    14445.073 
     592 9.0597446e-05   -796.50173            0   -796.50172    14445.026 
     593 8.6509923e-05   -796.50173            0   -796.50173    14445.038 
     594 2.3132447e-05   -796.50173            0   -796.50173    14444.977 
     595 2.6011715e-06   -796.50173            0   -796.50173    14444.983 
     596 2.8813389e-06   -796.50173            0   -796.50173    14444.982 
     597 3.484511e-06   -796.50173            0   -796.50173    14444.977 
     598 4.2558628e-06   -796.50174            0   -796.50173     14444.97 
     599 5.1148098e-06   -796.50174            0   -796.50174    14444.962 
     600 6.0511391e-06   -796.50174            0   -796.50174    14444.954 
     601 7.0631961e-06   -796.50174            0   -796.50174    14444.945 
     602 8.1500089e-06   -796.50174            0   -796.50174    14444.935 
     603 9.3105351e-06   -796.50174            0   -796.50174    14444.925 
     604 1.0543656e-05   -796.50174            0   -796.50174    14444.913 
     605 1.1848177e-05   -796.50174            0   -796.50174    14444.902 
     606 1.3222833e-05   -796.50175            0   -796.50175    14444.889 
     607 1.4666282e-05   -796.50175            0   -796.50175    14444.876 
     608 1.6177114e-05   -796.50175            0   -796.50175    14444.861 
     609 1.7753848e-05   -796.50175            0   -796.50175    14444.847 
     610 1.9394934e-05   -796.50175            0   -796.50175    14444.831 
     611 2.1098754e-05   -796.50176            0   -796.50176    14444.815 
     612 2.2863627e-05   -796.50176            0   -796.50176    14444.798 
     613 2.4687805e-05   -796.50176            0   -796.50176    14444.781 
     614 2.6569478e-05   -796.50176            0   -796.50176    14444.763 
     615 2.8506776e-05   -796.50177            0   -796.50177    14444.744 
     616 3.0497768e-05   -796.50177            0   -796.50177    14444.724 
     617 3.2540469e-05   -796.50177            0   -796.50177    14444.704 
     618 3.4632828e-05   -796.50178            0   -796.50177    14444.683 
     619 3.6772766e-05   -796.50178            0   -796.50178    14444.662 
     620 3.8958086e-05   -796.50178            0   -796.50178     14444.64 
     621 4.118672e-05   -796.50178            0   -796.50178    14444.617 
     622 4.345604e-05   -796.50179            0   -796.50179    14444.594 
     623 4.5764885e-05   -796.50179            0   -796.50179     14444.57 
     624 4.8107261e-05    -796.5018            0   -796.50179    14444.546 
     625 5.0491955e-05    -796.5018            0    -796.5018    14444.521 
     626 5.2866876e-05    -796.5018            0    -796.5018    14444.494 
     627  5.52687e-05   -796.50181            0   -796.50181    14444.472 
     628 5.5618057e-05   -796.50181            0   -796.50181    14444.431 
     629 3.909467e-05   -796.50181            0   -796.50181    14444.453 
     630 1.0717405e-06   -796.50181            0   -796.50181    14444.441 
     631 1.3805268e-06   -796.50181            0   -796.50181    14444.429 
     632 1.6235183e-06   -796.50181            0   -796.50181    14444.418 
     633 1.9086825e-06   -796.50182            0   -796.50182    14444.411 
     634 2.3509212e-06   -796.50182            0   -796.50182    14444.406 
     635 2.8672099e-06   -796.50182            0   -796.50182      14444.4 
     636 3.4333812e-06   -796.50182            0   -796.50182    14444.394 
     637 4.0486935e-06   -796.50182            0   -796.50182    14444.387 
     638 4.7127358e-06   -796.50182            0   -796.50182     14444.38 
     639  5.42486e-06   -796.50182            0   -796.50182    14444.372 
     640 6.1843855e-06   -796.50182            0   -796.50182    14444.364 
     641 6.990578e-06   -796.50182            0   -796.50182    14444.355 
     642 7.8426572e-06   -796.50183            0   -796.50182    14444.345 
     643 8.7397941e-06   -796.50183            0   -796.50183    14444.335 
     644 9.6811143e-06   -796.50183            0   -796.50183    14444.324 
     645 1.0665696e-05   -796.50183            0   -796.50183    14444.313 
     646 1.1692575e-05   -796.50183            0   -796.50183    14444.302 
     647 1.2760739e-05   -796.50183            0   -796.50183    14444.289 
     648 1.3869136e-05   -796.50184            0   -796.50184    14444.276 
     649 1.501667e-05   -796.50184            0   -796.50184    14444.263 
     650 1.6202206e-05   -796.50184            0   -796.50184    14444.249 
     651 1.7424562e-05   -796.50184            0   -796.50184    14444.235 
     652 1.8682531e-05   -796.50184            0   -796.50184     14444.22 
     653 1.997484e-05   -796.50185            0   -796.50185    14444.204 
     654 2.1300239e-05   -796.50185            0   -796.50185    14444.188 
     655 2.2657305e-05   -796.50185            0   -796.50185    14444.172 
     656 2.4044915e-05   -796.50185            0   -796.50185    14444.155 
     657 2.5461036e-05   -796.50186            0   -796.50186    14444.137 
     658 2.6906018e-05   -796.50186            0   -796.50186     14444.12 
     659 2.8372982e-05   -796.50186            0   -796.50186    14444.101 
     660 2.9875855e-05   -796.50187            0   -796.50187    14444.083 
     661 3.1347118e-05   -796.50187            0   -796.50187    14444.061 
     662 3.2831527e-05   -796.50187            0   -796.50187    14444.048 
     663 3.2011102e-05   -796.50188            0   -796.50187    14444.008 
     664 1.6156147e-05   -796.50188            0   -796.50188    14444.034 
     665 4.967668e-07   -796.50188            0   -796.50188    14444.027 
     666 6.6631479e-07   -796.50188            0   -796.50188    14444.019 
     667 8.1551982e-07   -796.50188            0   -796.50188    14444.012 
     668 9.9837904e-07   -796.50188            0   -796.50188    14444.006 
     669 1.2578093e-06   -796.50188            0   -796.50188    14444.002 
     670 1.5693542e-06   -796.50188            0   -796.50188    14443.998 
     671 1.9167053e-06   -796.50188            0   -796.50188    14443.994 
     672 2.2975834e-06   -796.50188            0   -796.50188    14443.989 
     673 2.7118127e-06   -796.50188            0   -796.50188    14443.983 
     674 3.1590364e-06   -796.50188            0   -796.50188    14443.977 
     675 3.6388235e-06   -796.50188            0   -796.50188    14443.971 
     676 4.1507141e-06   -796.50188            0   -796.50188    14443.964 
     677 4.6942139e-06   -796.50189            0   -796.50189    14443.957 
     678 5.2687965e-06   -796.50189            0   -796.50189    14443.949 
     679 5.8739033e-06   -796.50189            0   -796.50189    14443.941 
     680 6.508944e-06   -796.50189            0   -796.50189    14443.933 
     681 7.1732972e-06   -796.50189            0   -796.50189    14443.924 
     682 7.8663112e-06   -796.50189            0   -796.50189    14443.914 
     683 8.5873042e-06   -796.50189            0   -796.50189    14443.904 
     684 9.3355652e-06    -796.5019            0    -796.5019    14443.894 
     685 1.0110354e-05    -796.5019            0    -796.5019    14443.883 
     686 1.0910904e-05    -796.5019            0    -796.5019    14443.872 
     687 1.1736419e-05    -796.5019            0    -796.5019     14443.86 
     688 1.258608e-05    -796.5019            0    -796.5019    14443.848 
     689 1.3459033e-05   -796.50191            0   -796.50191    14443.836 
     690 1.4354422e-05   -796.50191            0   -796.50191    14443.823 
     691 1.527131e-05   -796.50191            0   -796.50191     14443.81 
     692 1.6208882e-05   -796.50191            0   -796.50191    14443.796 
     693 1.716591e-05   -796.50191            0   -796.50191    14443.782 
     694 1.8142242e-05   -796.50192            0   -796.50192    14443.767 
     695 1.9134401e-05   -796.50192            0   -796.50192    14443.752 
     696 2.0148924e-05   -796.50192            0   -796.50192    14443.737 
     697 2.1155596e-05   -796.50193            0   -796.50192    14443.721 
     698 2.2207505e-05   -796.50193            0   -796.50193    14443.709 
     699 2.2500513e-05   -796.50193            0   -796.50193    14443.679 
     700 1.6706843e-05   -796.50193            0   -796.50193    14443.701 
     701 4.8841359e-07   -796.50193            0   -796.50193    14443.693 
     702 6.1821393e-07   -796.50193            0   -796.50193    14443.685 
     703 6.8448006e-07   -796.50193            0   -796.50193    14443.677 
     704 7.6067245e-07   -796.50193            0   -796.50193    14443.672 
     705 9.3266251e-07   -796.50193            0   -796.50193    14443.669 
     706 1.1525019e-06   -796.50193            0   -796.50193    14443.665 
     707 1.3966701e-06   -796.50194            0   -796.50194    14443.661 
     708 1.6634312e-06   -796.50194            0   -796.50194    14443.657 
     709 1.9526865e-06   -796.50194            0   -796.50194    14443.653 
     710 2.2641601e-06   -796.50194            0   -796.50194    14443.648 
     711 2.5975535e-06   -796.50194            0   -796.50194    14443.643 
     712 2.9525456e-06   -796.50194            0   -796.50194    14443.637 
     713 3.3287932e-06   -796.50194            0   -796.50194    14443.631 
     714 3.725931e-06   -796.50194            0   -796.50194    14443.625 
     715 4.1435723e-06   -796.50194            0   -796.50194    14443.618 
     716 4.581309e-06   -796.50194            0   -796.50194    14443.611 
     717 5.0387121e-06   -796.50195            0   -796.50195    14443.603 
     718 5.5153322e-06   -796.50195            0   -796.50195    14443.596 
     719 6.0106998e-06   -796.50195            0   -796.50195    14443.588 
     720 6.5243257e-06   -796.50195            0   -796.50195    14443.579 
     721 7.0557016e-06   -796.50195            0   -796.50195     14443.57 
     722 7.6043004e-06   -796.50195            0   -796.50195    14443.561 
     723 8.169577e-06   -796.50195            0   -796.50195    14443.551 
     724 8.7509678e-06   -796.50196            0   -796.50196    14443.542 
     725 9.3478936e-06   -796.50196            0   -796.50196    14443.531 
     726 9.9597553e-06   -796.50196            0   -796.50196    14443.521 
     727 1.0585945e-05   -796.50196            0   -796.50196     14443.51 
     728 1.122582e-05   -796.50196            0   -796.50196    14443.499 
     729 1.1878778e-05   -796.50197            0   -796.50197    14443.487 
     730 1.2544039e-05   -796.50197            0   -796.50197    14443.475 
     731 1.3221305e-05   -796.50197            0   -796.50197    14443.463 
     732 1.3908685e-05   -796.50197            0   -796.50197    14443.451 
     733 1.4609692e-05   -796.50198            0   -796.50197    14443.438 
     734 1.5309712e-05   -796.50198            0   -796.50198    14443.424 
     735 1.6078338e-05   -796.50198            0   -796.50198    14443.413 
     736 1.6929753e-05   -796.50198            0   -796.50198     14443.39 
     737 2.0756582e-05   -796.50198            0   -796.50198    14443.413 
     738 5.6138984e-06   -796.50199            0   -796.50199    14443.383 
     739 9.1803162e-07   -796.50199            0   -796.50199     14443.38 
     740 1.0944897e-06   -796.50199            0   -796.50199    14443.377 
     741 1.2854654e-06   -796.50199            0   -796.50199    14443.373 
     742 1.4912519e-06   -796.50199            0   -796.50199    14443.369 
     743 1.7115448e-06   -796.50199            0   -796.50199    14443.365 
     744 1.9461705e-06   -796.50199            0   -796.50199    14443.361 
     745 2.1948818e-06   -796.50199            0   -796.50199    14443.356 
     746 2.4574511e-06   -796.50199            0   -796.50199    14443.351 
     747 2.7336112e-06   -796.50199            0   -796.50199    14443.346 
     748 3.023103e-06   -796.50199            0   -796.50199     14443.34 
     749 3.3256307e-06   -796.50199            0   -796.50199    14443.334 
     750 3.6409131e-06     -796.502            0     -796.502    14443.328 
     751 3.9686174e-06     -796.502            0     -796.502    14443.321 
     752 4.3084545e-06     -796.502            0     -796.502    14443.314 
     753 4.6600303e-06     -796.502            0     -796.502    14443.307 
     754 5.0231014e-06     -796.502            0     -796.502      14443.3 
     755 5.3970987e-06     -796.502            0     -796.502    14443.292 
     756 5.782082e-06     -796.502            0     -796.502    14443.285 
     757 6.1766506e-06   -796.50201            0   -796.50201    14443.276 
     758 6.5825981e-06   -796.50201            0   -796.50201    14443.268 
     759 6.9922602e-06   -796.50201            0   -796.50201    14443.259 
     760 7.4124111e-06   -796.50201            0   -796.50201    14443.251 
     761 7.7225675e-06   -796.50201            0   -796.50201    14443.239 
     762 7.4471982e-06   -796.50201            0   -796.50201    14443.238 
     763 3.7111592e-06   -796.50201            0   -796.50201     14443.22 
     764 3.9890115e-07   -796.50201            0   -796.50201    14443.223 
     765 4.5815442e-07   -796.50202            0   -796.50202    14443.223 
     766 5.4129539e-07   -796.50202            0   -796.50202    14443.221 
     767 6.5797393e-07   -796.50202            0   -796.50202    14443.219 
     768 7.8740001e-07   -796.50202            0   -796.50202    14443.216 
     769 9.2807853e-07   -796.50202            0   -796.50202    14443.213 
     770 1.0798559e-06   -796.50202            0   -796.50202     14443.21 
     771 1.2425901e-06   -796.50202            0   -796.50202    14443.206 
     772 1.4161236e-06   -796.50202            0   -796.50202    14443.202 
     773 1.6002894e-06   -796.50202            0   -796.50202    14443.198 
     774 1.7949086e-06   -796.50202            0   -796.50202    14443.194 
     775 1.9997923e-06   -796.50202            0   -796.50202     14443.19 
     776  2.21474e-06   -796.50202            0   -796.50202    14443.185 
     777 2.439542e-06   -796.50202            0   -796.50202     14443.18 
     778 2.6739772e-06   -796.50202            0   -796.50202    14443.175 
     779 2.9178155e-06   -796.50203            0   -796.50203    14443.169 
     780 3.1708158e-06   -796.50203            0   -796.50203    14443.163 
     781 3.4327295e-06   -796.50203            0   -796.50203    14443.157 
     782 3.7032945e-06   -796.50203            0   -796.50203    14443.151 
     783 3.9822482e-06   -796.50203            0   -796.50203    14443.145 
     784 4.269301e-06   -796.50203            0   -796.50203    14443.138 
     785 4.5641949e-06   -796.50203            0   -796.50203    14443.131 
     786 4.8665681e-06   -796.50203            0   -796.50203    14443.124 
     787 5.1762893e-06   -796.50204            0   -796.50204    14443.116 
     788 5.4925687e-06   -796.50204            0   -796.50204    14443.109 
     789 5.8163214e-06   -796.50204            0   -796.50204    14443.101 
     790 6.1422384e-06   -796.50204            0   -796.50204    14443.093 
     791 6.4731392e-06   -796.50204            0   -796.50204    14443.085 
     792 6.662313e-06   -796.50204            0   -796.50204    14443.074 
     793 5.8014284e-06   -796.50205            0   -796.50205    14443.075 
     794 1.2328965e-06   -796.50205            0   -796.50205    14443.063 
     795 3.1602329e-07   -796.50205            0   -796.50205    14443.064 
     796 3.7022712e-07   -796.50205            0   -796.50205    14443.063 
     797 4.5145621e-07   -796.50205            0   -796.50205    14443.061 
     798 5.4250407e-07   -796.50205            0   -796.50205    14443.058 
     799 6.4168734e-07   -796.50205            0   -796.50205    14443.056 
     800 7.488744e-07   -796.50205            0   -796.50205    14443.053 
     801 8.6396828e-07   -796.50205            0   -796.50205     14443.05 
     802 9.868567e-07   -796.50205            0   -796.50205    14443.047 
     803 1.1174221e-06   -796.50205            0   -796.50205    14443.044 
     804 1.2555376e-06   -796.50205            0   -796.50205     14443.04 
     805 1.4010695e-06   -796.50205            0   -796.50205    14443.037 
     806 1.5538756e-06   -796.50205            0   -796.50205    14443.033 
     807 1.7138071e-06   -796.50205            0   -796.50205    14443.028 
     808 1.8807068e-06   -796.50205            0   -796.50205    14443.024 
     809 2.0544115e-06   -796.50206            0   -796.50206    14443.019 
     810 2.2347491e-06   -796.50206            0   -796.50206    14443.015 
     811 2.421544e-06   -796.50206            0   -796.50206     14443.01 
     812 2.6146072e-06   -796.50206            0   -796.50206    14443.005 
     813 2.8137508e-06   -796.50206            0   -796.50206    14442.999 
     814 3.0187625e-06   -796.50206            0   -796.50206    14442.994 
     815 3.2294797e-06   -796.50206            0   -796.50206    14442.988 
     816 3.4455921e-06   -796.50206            0   -796.50206    14442.982 
     817 3.6671365e-06   -796.50206            0   -796.50206    14442.976 
     818 3.893167e-06   -796.50207            0   -796.50207    14442.969 
     819 4.125233e-06   -796.50207            0   -796.50207    14442.963 
     820 4.3549813e-06   -796.50207            0   -796.50207    14442.956 
     821 4.5808166e-06   -796.50207            0   -796.50207    14442.951 
     822 4.5265841e-06   -796.50207            0   -796.50207    14442.939 
     823 2.8319519e-06   -796.50207            0   -796.50207    14442.945 
     824 1.6003177e-07   -796.50207            0   -796.50207    14442.941 
     825 1.9165019e-07   -796.50207            0   -796.50207    14442.937 
     826 2.2135633e-07   -796.50207            0   -796.50207    14442.935 
     827 2.7268144e-07   -796.50207            0   -796.50207    14442.933 
     828 3.3352294e-07   -796.50207            0   -796.50207    14442.931 
     829 4.0027224e-07   -796.50207            0   -796.50207     14442.93 
     830 4.7290881e-07   -796.50207            0   -796.50207    14442.927 
     831 5.5136753e-07   -796.50208            0   -796.50208    14442.925 
     832 6.3557265e-07   -796.50208            0   -796.50208    14442.923 
     833 7.2544361e-07   -796.50208            0   -796.50208     14442.92 
     834 8.2089357e-07   -796.50208            0   -796.50208    14442.917 
     835 9.2183025e-07   -796.50208            0   -796.50208    14442.914 
     836 1.0281555e-06   -796.50208            0   -796.50208    14442.911 
     837 1.1397658e-06   -796.50208            0   -796.50208    14442.908 
     838 1.256552e-06   -796.50208            0   -796.50208    14442.904 
     839 1.3783997e-06   -796.50208            0   -796.50208    14442.901 
     840 1.5051892e-06   -796.50208            0   -796.50208    14442.897 
     841 1.6367959e-06   -796.50208            0   -796.50208    14442.893 
     842 1.7730894e-06   -796.50208            0   -796.50208    14442.888 
     843 1.9139361e-06   -796.50208            0   -796.50208    14442.884 
     844 2.0591945e-06   -796.50208            0   -796.50208     14442.88 
     845 2.2087249e-06   -796.50209            0   -796.50209    14442.875 
     846 2.3623683e-06   -796.50209            0   -796.50209     14442.87 
     847 2.5199973e-06   -796.50209            0   -796.50209    14442.865 
     848 2.6813876e-06   -796.50209            0   -796.50209     14442.86 
     849 2.8465587e-06   -796.50209            0   -796.50209    14442.854 
     850 3.0147725e-06   -796.50209            0   -796.50209    14442.849 
     851 3.1872082e-06   -796.50209            0   -796.50209    14442.843 
     852 3.355013e-06   -796.50209            0   -796.50209    14442.837 
     853 3.4988869e-06    -796.5021            0    -796.5021    14442.833 
     854 3.1546217e-06    -796.5021            0    -796.5021    14442.822 
     855 9.4656617e-07    -796.5021            0    -796.5021    14442.827 
     856 8.3711082e-08    -796.5021            0    -796.5021    14442.824 
     857 1.1053772e-07    -796.5021            0    -796.5021    14442.822 
     858 1.4139326e-07    -796.5021            0    -796.5021    14442.821 
     859 1.7850425e-07    -796.5021            0    -796.5021     14442.82 
     860 2.2030374e-07    -796.5021            0    -796.5021    14442.818 
     861 2.6634907e-07    -796.5021            0    -796.5021    14442.817 
     862 3.1662619e-07    -796.5021            0    -796.5021    14442.815 
     863 3.7109395e-07    -796.5021            0    -796.5021    14442.813 
     864 4.2969966e-07    -796.5021            0    -796.5021    14442.811 
     865 4.923875e-07    -796.5021            0    -796.5021    14442.809 
     866 5.5909705e-07    -796.5021            0    -796.5021    14442.807 
     867  6.29764e-07    -796.5021            0    -796.5021    14442.804 
     868 7.0431984e-07    -796.5021            0    -796.5021    14442.802 
     869 7.8269218e-07    -796.5021            0    -796.5021    14442.799 
     870 8.6480456e-07    -796.5021            0    -796.5021    14442.796 
     871 9.5057686e-07    -796.5021            0    -796.5021    14442.793 
     872 1.0399249e-06    -796.5021            0    -796.5021     14442.79 
     873 1.1327613e-06   -796.50211            0   -796.50211    14442.787 
     874 1.2289942e-06   -796.50211            0   -796.50211    14442.783 
     875 1.3285296e-06   -796.50211            0   -796.50211     14442.78 
     876 1.4312679e-06   -796.50211            0   -796.50211    14442.776 
     877 1.5371102e-06   -796.50211            0   -796.50211    14442.772 
     878 1.6459455e-06   -796.50211            0   -796.50211    14442.768 
     879 1.757681e-06   -796.50211            0   -796.50211    14442.764 
     880 1.8721658e-06   -796.50211            0   -796.50211    14442.759 
     881 1.9893949e-06   -796.50211            0   -796.50211    14442.755 
     882 2.1089248e-06   -796.50211            0   -796.50211     14442.75 
     883 2.2315393e-06   -796.50211            0   -796.50211    14442.746 
     884 2.3532574e-06   -796.50212            0   -796.50212    14442.741 
     885 2.4764776e-06   -796.50212            0   -796.50212    14442.737 
     886 2.471405e-06   -796.50212            0   -796.50212    14442.728 
     887 1.6120393e-06   -796.50212            0   -796.50212    14442.734 
     888 5.8695271e-08   -796.50212            0   -796.50212    14442.731 
     889 7.4540781e-08   -796.50212            0   -796.50212    14442.729 
     890 8.6781649e-08   -796.50212            0   -796.50212    14442.727 
     891 1.0474496e-07   -796.50212            0   -796.50212    14442.725 
     892 1.311768e-07   -796.50212            0   -796.50212    14442.724 
     893 1.6149153e-07   -796.50212            0   -796.50212    14442.723 
     894 1.9484765e-07   -796.50212            0   -796.50212    14442.722 
     895 2.3123587e-07   -796.50212            0   -796.50212     14442.72 
     896 2.7062526e-07   -796.50212            0   -796.50212    14442.719 
     897 3.1297776e-07   -796.50212            0   -796.50212    14442.717 
     898 3.582531e-07   -796.50212            0   -796.50212    14442.715 
     899 4.0640773e-07   -796.50212            0   -796.50212    14442.713 
     900 4.5739531e-07   -796.50212            0   -796.50212    14442.711 
     901 5.1116647e-07   -796.50212            0   -796.50212    14442.709 
     902 5.6766914e-07   -796.50212            0   -796.50212    14442.707 
     903 6.2684829e-07   -796.50212            0   -796.50212    14442.704 
     904 6.8864632e-07   -796.50212            0   -796.50212    14442.702 
     905 7.5300271e-07   -796.50212            0   -796.50212    14442.699 
     906 8.1985465e-07   -796.50213            0   -796.50213    14442.696 
     907 8.8913617e-07   -796.50213            0   -796.50213    14442.693 
     908 9.6077992e-07   -796.50213            0   -796.50213     14442.69 
     909 1.0347138e-06   -796.50213            0   -796.50213    14442.687 
     910 1.1108683e-06   -796.50213            0   -796.50213    14442.684 
     911 1.1891604e-06   -796.50213            0   -796.50213    14442.681 
     912 1.269532e-06   -796.50213            0   -796.50213    14442.677 
     913 1.3518523e-06   -796.50213            0   -796.50213    14442.673 
     914 1.4361808e-06   -796.50213            0   -796.50213     14442.67 
     915 1.5220018e-06   -796.50213            0   -796.50213    14442.666 
     916 1.6104293e-06   -796.50213            0   -796.50213    14442.662 
     917 1.6960012e-06   -796.50213            0   -796.50213    14442.657 
     918 1.7807842e-06   -796.50214            0   -796.50214    14442.655 
     919 1.6717422e-06   -796.50214            0   -796.50214    14442.645 
     920 5.6234499e-07   -796.50214            0   -796.50214    14442.651 
     921 7.3008397e-08   -796.50214            0   -796.50214    14442.649 
     922 7.7789393e-08   -796.50214            0   -796.50214    14442.647 
     923 9.5598402e-08   -796.50214            0   -796.50214    14442.646 
     924 1.1759577e-07   -796.50214            0   -796.50214    14442.645 
     925 1.4180775e-07   -796.50214            0   -796.50214    14442.644 
     926 1.6821396e-07   -796.50214            0   -796.50214    14442.643 
     927 1.9679198e-07   -796.50214            0   -796.50214    14442.642 
     928 2.2751422e-07   -796.50214            0   -796.50214     14442.64 
     929 2.6035157e-07   -796.50214            0   -796.50214    14442.639 
     930 2.9527249e-07   -796.50214            0   -796.50214    14442.637 
     931 3.3224347e-07   -796.50214            0   -796.50214    14442.635 
     932 3.712288e-07   -796.50214            0   -796.50214    14442.633 
     933 4.1219084e-07   -796.50214            0   -796.50214    14442.631 
     934 4.5508977e-07   -796.50214            0   -796.50214    14442.629 
     935  4.99884e-07   -796.50214            0   -796.50214    14442.627 
     936 5.4652971e-07   -796.50214            0   -796.50214    14442.625 
     937 5.9498161e-07   -796.50214            0   -796.50214    14442.623 
     938 6.4519188e-07   -796.50214            0   -796.50214     14442.62 
     939 6.9711212e-07   -796.50214            0   -796.50214    14442.618 
     940 7.5068971e-07   -796.50214            0   -796.50214    14442.615 
     941 8.0587565e-07   -796.50214            0   -796.50214    14442.612 
     942 8.6260694e-07   -796.50215            0   -796.50215    14442.609 
     943 9.2084942e-07   -796.50215            0   -796.50215    14442.606 
     944 9.8048705e-07   -796.50215            0   -796.50215    14442.603 
     945 1.0416229e-06   -796.50215            0   -796.50215      14442.6 
     946 1.1036832e-06   -796.50215            0   -796.50215    14442.597 
     947 1.1679409e-06   -796.50215            0   -796.50215    14442.594 
     948 1.2270375e-06   -796.50215            0   -796.50215     14442.59 
     949 1.2730259e-06   -796.50215            0   -796.50215    14442.589 
     950 9.8631066e-07   -796.50215            0   -796.50215    14442.579 
     951 8.1935574e-08   -796.50215            0   -796.50215    14442.582 
     952 7.4554673e-08   -796.50215            0   -796.50215    14442.583 
     953 7.1458515e-08   -796.50215            0   -796.50215    14442.582 
     954 8.6662646e-08   -796.50215            0   -796.50215    14442.582 
     955 1.0443018e-07   -796.50215            0   -796.50215    14442.581 
     956 1.2380585e-07   -796.50215            0   -796.50215     14442.58 
     957 1.4476877e-07   -796.50215            0   -796.50215    14442.578 
     958 1.6729962e-07   -796.50215            0   -796.50215    14442.577 
     959 1.9137676e-07   -796.50215            0   -796.50215    14442.576 
     960 2.1697731e-07   -796.50215            0   -796.50215    14442.575 
     961 2.4407666e-07   -796.50215            0   -796.50215    14442.573 
     962 2.7264881e-07   -796.50215            0   -796.50215    14442.571 
     963 3.0266611e-07   -796.50216            0   -796.50216     14442.57 
     964 3.3409963e-07   -796.50216            0   -796.50216    14442.568 
     965 3.6691877e-07   -796.50216            0   -796.50216    14442.566 
     966 4.0109184e-07   -796.50216            0   -796.50216    14442.564 
     967 4.3658522e-07   -796.50216            0   -796.50216    14442.562 
     968 4.7336493e-07   -796.50216            0   -796.50216     14442.56 
     969 5.1139383e-07   -796.50216            0   -796.50216    14442.558 
     970 5.5063721e-07   -796.50216            0   -796.50216    14442.556 
     971  5.91051e-07   -796.50216            0   -796.50216    14442.553 
     972 6.3260886e-07   -796.50216            0   -796.50216    14442.551 
     973  6.75235e-07   -796.50216            0   -796.50216    14442.548 
     974 7.1897473e-07   -796.50216            0   -796.50216    14442.546 
     975 7.6347538e-07   -796.50216            0   -796.50216    14442.543 
     976 8.0908599e-07   -796.50216            0   -796.50216    14442.541 
     977 8.4913499e-07   -796.50216            0   -796.50216    14442.537 
     978 8.4901339e-07   -796.50216            0   -796.50216    14442.536 
     979 4.9908238e-07   -796.50216            0   -796.50216     14442.53 
     980 3.0189263e-08   -796.50216            0   -796.50216    14442.531 
     981 4.0151751e-08   -796.50216            0   -796.50216    14442.532 
     982 4.8426561e-08   -796.50216            0   -796.50216    14442.531 
     983 5.9621847e-08   -796.50216            0   -796.50216    14442.531 
     984 7.2368936e-08   -796.50216            0   -796.50216     14442.53 
     985   8.6327e-08   -796.50216            0   -796.50216    14442.529 
     986 1.0147231e-07   -796.50217            0   -796.50217    14442.528 
     987 1.1779189e-07   -796.50217            0   -796.50217    14442.527 
     988 1.3526986e-07   -796.50217            0   -796.50217    14442.526 
     989 1.5388982e-07   -796.50217            0   -796.50217    14442.525 
     990 1.7363385e-07   -796.50217            0   -796.50217    14442.524 
     991 1.9448315e-07   -796.50217            0   -796.50217    14442.522 
     992 2.1641756e-07   -796.50217            0   -796.50217    14442.521 
     993 2.394161e-07   -796.50217            0   -796.50217    14442.519 
     994 2.6345636e-07   -796.50217            0   -796.50217    14442.518 
     995 2.8851536e-07   -796.50217            0   -796.50217    14442.516 
     996 3.1456832e-07   -796.50217            0   -796.50217    14442.515 
     997 3.4159076e-07   -796.50217            0   -796.50217    14442.513 
     998 3.695548e-07   -796.50217            0   -796.50217    14442.511 
     999 3.984364e-07   -796.50217            0   -796.50217    14442.509 
    1000 4.2820023e-07   -796.50217            0   -796.50217    14442.507 
    1001 4.5883386e-07   -796.50217            0   -796.50217    14442.505 
    1002 4.9026447e-07   -796.50217            0   -796.50217    14442.503 
    1003 5.2256822e-07   -796.50217            0   -796.50217    14442.501 
    1004 5.5535561e-07   -796.50217            0   -796.50217    14442.498 
    1005 5.8917234e-07   -796.50217            0   -796.50217    14442.496 
    1006 6.1752713e-07   -796.50217            0   -796.50217    14442.493 
    1007 6.1450355e-07   -796.50217            0   -796.50217    14442.493 
    1008 3.4083039e-07   -796.50217            0   -796.50217    14442.487 
    1009 2.1118234e-08   -796.50217            0   -796.50217    14442.488 
    1010 2.5920123e-08   -796.50217            0   -796.50217    14442.489 
    1011 3.0407827e-08   -796.50217            0   -796.50217    14442.489 
    1012 3.7630901e-08   -796.50217            0   -796.50217    14442.488 
    1013 4.640939e-08   -796.50218            0   -796.50218    14442.488 
    1014 5.6144382e-08   -796.50218            0   -796.50218    14442.487 
[...]
    2383 1.8531726e-07   -796.48393            0   -796.48393     14616.73 
    2384 2.027635e-07   -796.48393            0   -796.48393    14616.733 
    2385 2.2082926e-07   -796.48393            0   -796.48393    14616.737 
    2386 2.3948543e-07   -796.48393            0   -796.48393     14616.74 
    2387 2.5870242e-07   -796.48393            0   -796.48393    14616.744 
    2388 2.7844876e-07   -796.48393            0   -796.48393    14616.748 
    2389 2.9869342e-07   -796.48393            0   -796.48393    14616.752 
    2390 3.1940184e-07   -796.48393            0   -796.48393    14616.756 
    2391 3.4054344e-07   -796.48393            0   -796.48393     14616.76 
    2392 3.620748e-07   -796.48393            0   -796.48393    14616.765 
    2393 3.8396921e-07   -796.48393            0   -796.48393    14616.769 
    2394 4.0609106e-07   -796.48393            0   -796.48393    14616.774 
    2395 4.2809488e-07   -796.48393            0   -796.48393    14616.779 
    2396 4.4617632e-07   -796.48393            0   -796.48393    14616.784 
    2397 4.3193658e-07   -796.48393            0   -796.48393    14616.788 
    2398 2.3420716e-07   -796.48393            0   -796.48393    14616.792 
    2399 1.8658642e-08   -796.48393            0   -796.48393    14616.793 
    2400 2.9522461e-08   -796.48393            0   -796.48393    14616.794 
    2401 3.5329554e-08   -796.48393            0   -796.48393    14616.795 
    2402 4.1672987e-08   -796.48393            0   -796.48393    14616.797 
    2403 4.8508231e-08   -796.48393            0   -796.48393    14616.798 
    2404 5.5823135e-08   -796.48393            0   -796.48393      14616.8 
    2405 6.3606451e-08   -796.48393            0   -796.48393    14616.802 
    2406 7.1845915e-08   -796.48393            0   -796.48393    14616.804 
    2407 8.0528566e-08   -796.48393            0   -796.48393    14616.806 
    2408 8.9640648e-08   -796.48393            0   -796.48393    14616.808 
    2409 9.9167696e-08   -796.48393            0   -796.48393     14616.81 
    2410 1.090945e-07   -796.48393            0   -796.48393    14616.813 
    2411 1.1940519e-07   -796.48393            0   -796.48393    14616.815 
    2412 1.3008318e-07   -796.48393            0   -796.48393    14616.818 
    2413 1.4111127e-07   -796.48393            0   -796.48393     14616.82 
    2414 1.524716e-07   -796.48393            0   -796.48393    14616.823 
    2415 1.6414575e-07   -796.48393            0   -796.48393    14616.826 
    2416 1.7611465e-07   -796.48393            0   -796.48393    14616.829 
    2417 1.8835882e-07   -796.48393            0   -796.48393    14616.832 
    2418 2.0085795e-07   -796.48393            0   -796.48393    14616.836 
    2419 2.1359188e-07   -796.48393            0   -796.48393    14616.839 
    2420 2.2653851e-07   -796.48393            0   -796.48393    14616.843 
    2421 2.3967844e-07   -796.48393            0   -796.48393    14616.846 
    2422 2.5298132e-07   -796.48393            0   -796.48393     14616.85 
    2423 2.6642524e-07   -796.48393            0   -796.48393    14616.854 
    2424 2.7978226e-07   -796.48393            0   -796.48393    14616.857 
    2425 2.9165382e-07   -796.48393            0   -796.48393    14616.861 
    2426 2.8547638e-07   -796.48393            0   -796.48393    14616.865 
    2427 1.5674869e-07   -796.48393            0   -796.48393    14616.868 
    2428 6.7380998e-09   -796.48393            0   -796.48393    14616.868 
    2429 1.2147008e-08   -796.48393            0   -796.48393    14616.869 
    2430 1.5723732e-08   -796.48393            0   -796.48393     14616.87 
    2431 1.8911416e-08   -796.48393            0   -796.48393    14616.871 
    2432 2.236739e-08   -796.48393            0   -796.48393    14616.872 
    2433 2.6094863e-08   -796.48393            0   -796.48393    14616.873 
    2434 3.0088347e-08   -796.48393            0   -796.48393    14616.875 
    2435 3.4341513e-08   -796.48393            0   -796.48393    14616.876 
    2436 3.8847649e-08   -796.48393            0   -796.48393    14616.877 
    2437 4.359959e-08   -796.48393            0   -796.48393    14616.879 
    2438 4.858976e-08   -796.48393            0   -796.48393     14616.88 
    2439 5.3810162e-08   -796.48393            0   -796.48393    14616.882 
    2440 5.9252406e-08   -796.48393            0   -796.48393    14616.884 
    2441 6.4907709e-08   -796.48393            0   -796.48393    14616.886 
    2442 7.0766913e-08   -796.48393            0   -796.48393    14616.887 
    2443 7.6820495e-08   -796.48393            0   -796.48393    14616.889 
    2444 8.3058587e-08   -796.48393            0   -796.48393    14616.892 
    2445 8.9470975e-08   -796.48393            0   -796.48393    14616.894 
    2446 9.6047138e-08   -796.48393            0   -796.48393    14616.896 
    2447 1.0277623e-07   -796.48393            0   -796.48393    14616.898 
    2448 1.0964714e-07   -796.48393            0   -796.48393    14616.901 
    2449 1.1664841e-07   -796.48393            0   -796.48393    14616.903 
    2450 1.2376848e-07   -796.48393            0   -796.48393    14616.906 
    2451 1.3099518e-07   -796.48393            0   -796.48393    14616.908 
    2452 1.3831698e-07   -796.48393            0   -796.48393    14616.911 
    2453 1.4571919e-07   -796.48393            0   -796.48393    14616.914 
    2454 1.5319084e-07   -796.48393            0   -796.48393    14616.917 
    2455 1.6066401e-07   -796.48393            0   -796.48393     14616.92 
    2456 1.6776947e-07   -796.48393            0   -796.48393    14616.922 
    2457 1.6953585e-07   -796.48393            0   -796.48393    14616.926 
    2458 1.2178084e-07   -796.48393            0   -796.48393    14616.928 
    2459 9.0977051e-09   -796.48393            0   -796.48393    14616.929 
    2460 1.1259617e-08   -796.48393            0   -796.48393    14616.929 
    2461 1.3213171e-08   -796.48393            0   -796.48393     14616.93 
    2462 1.5316836e-08   -796.48393            0   -796.48393    14616.931 
    2463 1.7563965e-08   -796.48393            0   -796.48393    14616.932 
    2464 1.9950254e-08   -796.48393            0   -796.48393    14616.933 
    2465 2.2472073e-08   -796.48393            0   -796.48393    14616.934 
    2466 2.5125278e-08   -796.48393            0   -796.48393    14616.935 
    2467 2.7905656e-08   -796.48393            0   -796.48393    14616.936 
    2468 3.0808661e-08   -796.48393            0   -796.48393    14616.937 
    2469 3.3829628e-08   -796.48393            0   -796.48393    14616.939 
    2470 3.6963589e-08   -796.48393            0   -796.48393     14616.94 
    2471 4.0205477e-08   -796.48393            0   -796.48393    14616.942 
    2472 4.3549901e-08   -796.48393            0   -796.48393    14616.943 
    2473 4.6991467e-08   -796.48393            0   -796.48393    14616.945 
    2474 5.0524317e-08   -796.48393            0   -796.48393    14616.946 
    2475 5.4142887e-08   -796.48393            0   -796.48393    14616.948 
    2476 5.7840568e-08   -796.48393            0   -796.48393     14616.95 
    2477 6.1612142e-08   -796.48393            0   -796.48393    14616.951 
    2478 6.5447941e-08   -796.48393            0   -796.48393    14616.953 
    2479 6.9341822e-08   -796.48393            0   -796.48393    14616.955 
    2480 7.3237874e-08   -796.48393            0   -796.48393    14616.957 
    2481 7.6907012e-08   -796.48393            0   -796.48393    14616.959 
    2482 7.8185306e-08   -796.48393            0   -796.48393    14616.961 
    2483 6.3142991e-08   -796.48393            0   -796.48393    14616.963 
    2484 1.4357193e-08   -796.48393            0   -796.48393    14616.964 
    2485 4.1922625e-09   -796.48393            0   -796.48393    14616.964 
    2486 5.3703038e-09   -796.48393            0   -796.48393    14616.965 
    2487 6.4310274e-09   -796.48393            0   -796.48393    14616.965 
    2488 7.5838481e-09   -796.48393            0   -796.48393    14616.966 
    2489 8.8255384e-09   -796.48393            0   -796.48393    14616.966 
    2490 1.015405e-08   -796.48393            0   -796.48393    14616.967 
    2491 1.1567272e-08   -796.48393            0   -796.48393    14616.968 
    2492 1.3062934e-08   -796.48393            0   -796.48393    14616.969 
    2493 1.4638629e-08   -796.48393            0   -796.48393    14616.969 
    2494 1.6291805e-08   -796.48393            0   -796.48393     14616.97 
    2495 1.801978e-08   -796.48393            0   -796.48393    14616.971 
    2496 1.9819736e-08   -796.48393            0   -796.48393    14616.972 
    2497 2.1688731e-08   -796.48393            0   -796.48393    14616.973 
    2498 2.3623696e-08   -796.48393            0   -796.48393    14616.974 
    2499 2.5621448e-08   -796.48393            0   -796.48393    14616.976 
    2500 2.7678683e-08   -796.48393            0   -796.48393    14616.977 
    2501 2.9791996e-08   -796.48393            0   -796.48393    14616.978 
    2502 3.1957868e-08   -796.48393            0   -796.48393    14616.979 
    2503 3.4172693e-08   -796.48393            0   -796.48393    14616.981 
    2504 3.6432751e-08   -796.48393            0   -796.48393    14616.982 
    2505 3.873427e-08   -796.48393            0   -796.48393    14616.983 
    2506 4.1073318e-08   -796.48393            0   -796.48393    14616.985 
    2507 4.3446053e-08   -796.48393            0   -796.48393    14616.986 
    2508 4.5848121e-08   -796.48393            0   -796.48393    14616.988 
    2509 4.8276053e-08   -796.48393            0   -796.48393    14616.989 
    2510 5.0721731e-08   -796.48393            0   -796.48393    14616.991 
    2511 5.3171949e-08   -796.48393            0   -796.48393    14616.993 
    2512 5.5425032e-08   -796.48393            0   -796.48393    14616.994 
    2513 5.5518546e-08   -796.48393            0   -796.48393    14616.996 
    2514 3.5754453e-08   -796.48393            0   -796.48393    14616.997 
    2515 1.7957034e-09   -796.48393            0   -796.48393    14616.998 
    2516 3.1404148e-09   -796.48393            0   -796.48393    14616.998 
    2517 3.7046189e-09   -796.48393            0   -796.48393    14616.998 
    2518 4.346193e-09   -796.48393            0   -796.48393    14616.999 
    2519 5.0353408e-09   -796.48393            0   -796.48393    14616.999 
    2520 5.771022e-09   -796.48393            0   -796.48393        14617 
    2521 6.552031e-09   -796.48393            0   -796.48393        14617 
    2522 7.3771136e-09   -796.48393            0   -796.48393    14617.001 
    2523 8.244927e-09   -796.48393            0   -796.48393    14617.002 
    2524  9.15406e-09   -796.48393            0   -796.48393    14617.002 
    2525 1.0103024e-08   -796.48393            0   -796.48393    14617.003 
    2526 1.1090264e-08   -796.48393            0   -796.48393    14617.004 
    2527 1.2114154e-08   -796.48393            0   -796.48393    14617.005 
    2528 1.3173003e-08   -796.48393            0   -796.48393    14617.005 
    2529 1.4265056e-08   -796.48393            0   -796.48393    14617.006 
    2530 1.5388501e-08   -796.48393            0   -796.48393    14617.007 
    2531 1.6541457e-08   -796.48393            0   -796.48393    14617.008 
    2532 1.772201e-08   -796.48393            0   -796.48393    14617.009 
    2533 1.8928153e-08   -796.48393            0   -796.48393     14617.01 
    2534 2.0157906e-08   -796.48393            0   -796.48393    14617.011 
    2535 2.1409074e-08   -796.48393            0   -796.48393    14617.012 
    2536 2.2679761e-08   -796.48393            0   -796.48393    14617.013 
    2537 2.3966934e-08   -796.48393            0   -796.48393    14617.014 
    2538 2.5268378e-08   -796.48393            0   -796.48393    14617.015 
    2539 2.6563039e-08   -796.48393            0   -796.48393    14617.016 
    2540 2.7733431e-08   -796.48393            0   -796.48393    14617.017 
    2541 2.748253e-08   -796.48393            0   -796.48393    14617.019 
    2542 1.7332011e-08   -796.48393            0   -796.48393     14617.02 
    2543 1.2672641e-09   -796.48393            0   -796.48393     14617.02 
    2544 1.9430865e-09   -796.48393            0   -796.48393     14617.02 
    2545 2.2859418e-09   -796.48393            0   -796.48393     14617.02 
    2546 2.667133e-09   -796.48393            0   -796.48393    14617.021 
    2547 3.0758164e-09   -796.48393            0   -796.48393    14617.021 
    2548 3.5110177e-09   -796.48393            0   -796.48393    14617.022 
    2549 3.9720785e-09   -796.48393            0   -796.48393    14617.022 
    2550 4.4582272e-09   -796.48393            0   -796.48393    14617.022 
    2551 4.9686825e-09   -796.48393            0   -796.48393    14617.023 
    2552 5.5025996e-09   -796.48393            0   -796.48393    14617.023 
    2553 6.0591081e-09   -796.48393            0   -796.48393    14617.024 
    2554 6.6372831e-09   -796.48393            0   -796.48393    14617.025 
    2555 7.2361758e-09   -796.48393            0   -796.48393    14617.025 
    2556 7.8547822e-09   -796.48393            0   -796.48393    14617.026 
    2557 8.4920863e-09   -796.48393            0   -796.48393    14617.026 
    2558 9.1470022e-09   -796.48393            0   -796.48393    14617.027 
    2559 9.8184676e-09   -796.48393            0   -796.48393    14617.028 
    2560 1.0505289e-08   -796.48393            0   -796.48393    14617.029 
    2561 1.120642e-08   -796.48393            0   -796.48393    14617.029 
    2562 1.1920367e-08   -796.48393            0   -796.48393     14617.03 
    2563 1.2646207e-08   -796.48393            0   -796.48393    14617.031 
    2564 1.3379533e-08   -796.48393            0   -796.48393    14617.032 
    2565 1.4110123e-08   -796.48393            0   -796.48393    14617.032 
    2566 1.473108e-08   -796.48393            0   -796.48393    14617.033 
    2567 1.4491141e-08   -796.48393            0   -796.48393    14617.034 
    2568 9.0460533e-09   -796.48393            0   -796.48393    14617.035 
    2569 1.0086982e-09   -796.48393            0   -796.48393    14617.035 
    2570 1.2551677e-09   -796.48393            0   -796.48393    14617.035 
    2571 1.4762355e-09   -796.48393            0   -796.48393    14617.036 
    2572 1.7152026e-09   -796.48393            0   -796.48393    14617.036 
    2573 1.9706249e-09   -796.48393            0   -796.48393    14617.036 
    2574 2.2421312e-09   -796.48393            0   -796.48393    14617.036 
    2575 2.5292607e-09   -796.48393            0   -796.48393    14617.037 
    2576 2.8315532e-09   -796.48393            0   -796.48393    14617.037 
    2577 3.1485079e-09   -796.48393            0   -796.48393    14617.038 
    2578 3.4796074e-09   -796.48393            0   -796.48393    14617.038 
    2579 3.8243019e-09   -796.48393            0   -796.48393    14617.038 
    2580 4.1820241e-09   -796.48393            0   -796.48393    14617.039 
    2581 4.5521758e-09   -796.48393            0   -796.48393    14617.039 
    2582 4.9341457e-09   -796.48393            0   -796.48393     14617.04 
    2583 5.3272879e-09   -796.48393            0   -796.48393     14617.04 
    2584 5.7309557e-09   -796.48393            0   -796.48393    14617.041 
    2585 6.1444488e-09   -796.48393            0   -796.48393    14617.041 
    2586 6.5671084e-09   -796.48393            0   -796.48393    14617.042 
    2587 6.9981317e-09   -796.48393            0   -796.48393    14617.043 
    2588 7.4369188e-09   -796.48393            0   -796.48393    14617.043 
    2589 7.8820827e-09   -796.48393            0   -796.48393    14617.044 
    2590 8.3322702e-09   -796.48393            0   -796.48393    14617.044 
    2591 8.772733e-09   -796.48393            0   -796.48393    14617.045 
    2592 9.1183296e-09   -796.48393            0   -796.48393    14617.046 
    2593 8.6089554e-09   -796.48393            0   -796.48393    14617.046 
    2594 4.1481048e-09   -796.48393            0   -796.48393    14617.047 
    2595 3.3334649e-10   -796.48393            0   -796.48393    14617.047 
    2596 5.3929226e-10   -796.48393            0   -796.48393    14617.047 
    2597 6.605503e-10   -796.48393            0   -796.48393    14617.047 
    2598 7.8616991e-10   -796.48393            0   -796.48393    14617.047 
    2599 9.2203026e-10   -796.48393            0   -796.48393    14617.048 
    2600 1.0679475e-09   -796.48393            0   -796.48393    14617.048 
    2601 1.2236827e-09   -796.48393            0   -796.48393    14617.048 
    2602 1.3889834e-09   -796.48393            0   -796.48393    14617.048 
    2603 1.5635797e-09   -796.48393            0   -796.48393    14617.049 
    2604 1.7471856e-09   -796.48393            0   -796.48393    14617.049 
    2605 1.9394992e-09   -796.48393            0   -796.48393    14617.049 
    2606 2.140203e-09   -796.48393            0   -796.48393    14617.049 
    2607 2.3489649e-09   -796.48393            0   -796.48393     14617.05 
    2608 2.5654381e-09   -796.48393            0   -796.48393     14617.05 
    2609 2.789262e-09   -796.48393            0   -796.48393    14617.051 
    2610 3.0200628e-09   -796.48393            0   -796.48393    14617.051 
    2611 3.2574537e-09   -796.48393            0   -796.48393    14617.051 
    2612 3.501036e-09   -796.48393            0   -796.48393    14617.052 
    2613 3.7503987e-09   -796.48393            0   -796.48393    14617.052 
    2614 4.0051217e-09   -796.48393            0   -796.48393    14617.053 
    2615 4.2647711e-09   -796.48393            0   -796.48393    14617.053 
    2616 4.5289101e-09   -796.48393            0   -796.48393    14617.053 
    2617 4.7970778e-09   -796.48393            0   -796.48393    14617.054 
    2618 5.0688405e-09   -796.48393            0   -796.48393    14617.054 
    2619 5.3436537e-09   -796.48393            0   -796.48393    14617.055 
    2620 5.6211676e-09   -796.48393            0   -796.48393    14617.056 
    2621 5.8996244e-09   -796.48393            0   -796.48393    14617.056 
    2622 6.1732269e-09   -796.48393            0   -796.48393    14617.057 
    2623 6.3538084e-09   -796.48393            0   -796.48393    14617.057 
    2624 5.5747125e-09   -796.48393            0   -796.48393    14617.058 
    2625 1.2103101e-09   -796.48393            0   -796.48393    14617.058 
    2626 7.8993874e-11   -796.48393            0   -796.48393    14617.058 
Loop time of 580.077 on 24 procs for 891 steps with 127 atoms

98.3% CPU use with 24 MPI tasks x no OpenMP threads

Minimization stats:
  Stopping criterion = energy tolerance
  Energy initial, next-to-last, final = 
        -796.502245288     -796.483931563     -796.483931562
  Force two-norm initial, final = 0.188737 9.10309e-06
  Force max component initial, final = 0.181933 5.25004e-06
  Final line search alpha, max atom move = 0 0
  Iterations, force evaluations = 891 891

MPI task timing breakdown:
Section |  min time  |  avg time  |  max time  |%varavg| %total
---------------------------------------------------------------
Pair    | 219.11     | 385.2      | 523.03     | 462.6 | 66.40
Neigh   | 0          | 0          | 0          |   0.0 |  0.00
Comm    | 0.064912   | 137.89     | 303.98     | 773.2 | 23.77
Output  | 0.15313    | 0.15333    | 0.15411    |   0.1 |  0.03
Modify  | 0.2448     | 0.24781    | 0.24868    |   0.2 |  0.04
Other   |            | 56.59      |            |       |  9.76

Nlocal:    5.29167 ave 7 max 3 min
Histogram: 4 0 0 0 0 9 0 7 0 4
Nghost:    761.875 ave 803 max 714 min
Histogram: 5 3 0 0 0 5 3 0 3 5
Neighs:    0 ave 0 max 0 min
Histogram: 24 0 0 0 0 0 0 0 0 0
FullNghs:  1068 ave 1408 max 610 min
Histogram: 4 0 0 0 5 4 0 7 0 4

Total # of neighbors = 25632
Ave neighs/atom = 201.827
Neighbor list builds = 0
Dangerous builds = 0
Total wall time: 0:28:56
