LAMMPS (12 Dec 2018)
Processor partition = 1
units         metal
atom_style    atomic
neighbor      1.0 bin
neigh_modify  every 1 delay 0 check yes

boundary        p p p
atom_modify map array sort 0 0.0
variable	u uloop 8

read_data   initial.lammps
  orthogonal box = (0 0 0) to (10.0025 12.3537 10.615)
  2 by 4 by 3 MPI processor grid
  reading atoms ...
  127 atoms
pair_style  hybrid/overlay nnp3v nnp3v_vf
pair_coeff  * * nnp3v lammps-force.nnp Li P O
Reading potential file lammps-force.nnp with DATE: 20201105
pair_coeff  * * nnp3v_vf lammps_rot.nnp Li P O
Reading potential file lammps_rot.nnp with DATE: 20211226
min_style   quickmin
minimize    1.0e-6 1.0e-4 1000 10000
Neighbor list info ...
  update every 1 steps, delay 0 steps, check yes
  max neighbors/atom: 2000, page size: 100000
  master list distance cutoff = 8
  ghost atom cutoff = 8
  binsize = 4, bins = 3 4 3
  2 neighbor lists, perpetual/occasional/extra = 2 0 0
  (1) pair nnp3v, perpetual
      attributes: full, newton on
      pair build: full/bin/atomonly
      stencil: full/bin/3d
      bin: standard
  (2) pair nnp3v_vf, perpetual, copy from (1)
      attributes: full, newton on
      pair build: copy
      stencil: none
      bin: none
Per MPI rank memory allocation (min/avg/max) = 3.111 | 3.226 | 3.362 Mbytes
Step Temp E_pair E_mol TotEng Press 
       0            0   -796.79482            0   -796.79482    13324.103 
      24   0.66844098   -796.99042            0   -796.97954    13893.519 
Loop time of 16.5969 on 24 procs for 24 steps with 127 atoms

96.2% CPU use with 24 MPI tasks x no OpenMP threads

Minimization stats:
  Stopping criterion = energy tolerance
  Energy initial, next-to-last, final = 
        -796.794816724     -796.990398619     -796.990424995
  Force two-norm initial, final = 1.98977 0.177561
  Force max component initial, final = 0.330078 0.036579
  Final line search alpha, max atom move = 0 0
  Iterations, force evaluations = 24 24

MPI task timing breakdown:
Section |  min time  |  avg time  |  max time  |%varavg| %total
---------------------------------------------------------------
Pair    | 6.0865     | 11.031     | 15.543     |  79.3 | 66.47
Neigh   | 0          | 0          | 0          |   0.0 |  0.00
Comm    | 1.024      | 5.5401     | 10.496     | 112.1 | 33.38
Output  | 0          | 0          | 0          |   0.0 |  0.00
Modify  | 0          | 0          | 0          |   0.0 |  0.00
Other   |            | 0.02557    |            |       |  0.15

Nlocal:    5.29167 ave 7 max 3 min
Histogram: 4 0 0 0 0 9 0 7 0 4
Nghost:    759.125 ave 797 max 714 min
Histogram: 7 1 0 0 0 2 6 0 0 8
Neighs:    0 ave 0 max 0 min
Histogram: 24 0 0 0 0 0 0 0 0 0
FullNghs:  1068 ave 1413 max 614 min
Histogram: 4 0 0 0 5 4 0 7 0 4

Total # of neighbors = 25632
Ave neighs/atom = 201.827
Neighbor list builds = 0
Dangerous builds = 0

reset_timestep	0

#timestep   0.001
#velocity   all create 1000 87287

dump   1 all atom 1 dump.neb.$u
dump   1 all atom 1 dump.neb.2
fix    2 all neb 1.0 parallel neigh
dump   2 all atom 1 test.dump

thermo          1
neb 0.00000000001 0.0 10000 5000 1 final final.lammps
Per MPI rank memory allocation (min/avg/max) = 5.112 | 5.226 | 5.362 Mbytes
Step Temp E_pair E_mol TotEng Press 
       0            0   -796.67577            0   -796.67577    14126.143 
       1   0.13408735   -796.67577            0   -796.67358    14127.921 
       2   0.66137656   -796.68056            0   -796.66979    14157.905 
       3    1.7159022   -796.69016            0   -796.66222    14219.195 
       4    3.4725146   -796.70448            0   -796.64792    14313.998 
       5    6.1563286   -796.72311            0   -796.62284    14438.946 
       6    9.9386859   -796.74519            0   -796.58332    14574.232 
       7    14.610537   -796.76911            0   -796.53115    14671.828 
       8    18.724144   -796.79249            0   -796.48753      14671.6 
       9    21.311671   -796.81341            0   -796.46631    14591.844 
      10      22.6339   -796.83074            0    -796.4621     14518.29 
      11    22.752389   -796.84464            0   -796.47408    14489.647 
      12    21.206354   -796.85486            0   -796.50948    14425.269 
      13    6.1614171   -796.85936            0   -796.75901    14265.012 
      14 0.0036165742   -796.85936            0    -796.8593    14183.344 
      15  0.010470437   -796.85943            0   -796.85926    14182.313 
      16  0.022020491   -796.85959            0   -796.85923    14180.228 
      17  0.039229755   -796.85982            0   -796.85918    14177.155 
      18  0.064383661   -796.86014            0   -796.85909    14173.259 
      19   0.10219353   -796.86056            0    -796.8589    14168.908 
      20   0.15757356   -796.86113            0   -796.85856    14164.867 
      21    0.2204684   -796.86184            0   -796.85825    14162.114 
      22   0.27661381   -796.86267            0   -796.85816    14160.867 
      23   0.33496494   -796.86358            0   -796.85813    14160.689 
      24   0.39936815   -796.86458            0   -796.85807    14161.095 
      25   0.46938349   -796.86564            0     -796.858    14161.827 
      26   0.54470107   -796.86676            0   -796.85789    14162.815 
      27   0.62527867   -796.86793            0   -796.85775    14164.055 
      28   0.71119137   -796.86915            0   -796.85757    14165.551 
      29   0.80257499   -796.87041            0   -796.85734    14167.324 
      30   0.89961905   -796.87171            0   -796.85706    14169.399 
      31    1.0025579   -796.87303            0    -796.8567    14171.796 
      32    1.1116622   -796.87437            0   -796.85627    14174.532 
      33    1.2272263   -796.87573            0   -796.85574    14177.623 
      34    1.3495541    -796.8771            0   -796.85512    14181.078 
      35    1.4789439   -796.87848            0   -796.85439    14184.903 
      36    1.6156654   -796.87986            0   -796.85355    14189.106 
      37    1.7599441   -796.88124            0   -796.85258    14193.677 
      38    1.9119214   -796.88262            0   -796.85148    14198.637 
      39    2.0717473   -796.88399            0   -796.85025    14203.973 
      40    2.2394549   -796.88535            0   -796.84888    14209.678 
      41    2.4150068    -796.8867            0   -796.84737    14215.746 
      42    2.5981759   -796.88803            0   -796.84572    14222.123 
      43    2.7887141   -796.88935            0   -796.84393    14228.895 
      44    2.9749092   -796.89064            0   -796.84218    14235.394 
      45    2.9270789   -796.89185            0   -796.84418    14240.632 
      46    0.5224313   -796.89232            0   -796.88382     14207.47 
      47 0.00042626917   -796.89232            0   -796.89232    14200.547 
      48 0.0012173611   -796.89233            0   -796.89232    14200.685 
      49  0.002589124   -796.89236            0   -796.89231    14200.959 
      50 0.0048503272   -796.89239            0   -796.89231    14201.374 
      51 0.0086456214   -796.89244            0    -796.8923    14201.931 
      52  0.015000178   -796.89251            0   -796.89227    14202.621 
      53  0.024289201   -796.89261            0   -796.89221    14203.389 
      54  0.034452127   -796.89272            0   -796.89216    14204.135 
      55  0.044127639   -796.89285            0   -796.89213    14204.839 
      56  0.054178005     -796.893            0   -796.89212    14205.551 
      57  0.065130968   -796.89316            0    -796.8921    14206.312 
      58  0.077060341   -796.89333            0   -796.89208    14207.138 
      59  0.089955629   -796.89352            0   -796.89206    14208.032 
      60   0.10380245   -796.89372            0   -796.89203    14208.996 
      61   0.11858648   -796.89394            0     -796.892    14210.029 
      62   0.13429235   -796.89416            0   -796.89198     14211.13 
      63   0.15090332    -796.8944            0   -796.89194    14212.298 
      64   0.16840125   -796.89465            0   -796.89191    14213.533 
      65   0.18676661   -796.89492            0   -796.89187    14214.833 
      66   0.20597864   -796.89519            0   -796.89183    14216.198 
      67   0.22601478   -796.89547            0   -796.89179    14217.625 
      68   0.24685119   -796.89577            0   -796.89175    14219.114 
      69   0.26846203   -796.89607            0    -796.8917    14220.663 
      70   0.29082026   -796.89638            0   -796.89165     14222.27 
      71   0.31389679    -796.8967            0   -796.89159     14223.93 
      72   0.33766138   -796.89704            0   -796.89154    14225.644 
      73   0.36208083   -796.89737            0   -796.89148    14227.411 
      74   0.38711969   -796.89772            0   -796.89141    14229.224 
      75   0.41274075   -796.89807            0   -796.89135    14231.082 
      76   0.43890337   -796.89843            0   -796.89128    14232.981 
      77   0.46556691    -796.8988            0   -796.89121    14234.918 
      78    0.4926809   -796.89917            0   -796.89114    14236.885 
      79   0.52020255   -796.89955            0   -796.89108    14238.883 
      80   0.54805633   -796.89993            0   -796.89101    14240.894 
      81   0.57618057   -796.90032            0   -796.89094    14242.945 
      82   0.60380934   -796.90072            0   -796.89089    14244.913 
      83   0.62098963   -796.90111            0     -796.891    14247.007 
      84    0.4780733   -796.90148            0   -796.89369    14245.815 
      85  0.018764799   -796.90153            0   -796.90123    14240.375 
      86  0.030003738   -796.90161            0   -796.90112    14240.978 
      87  0.033992518    -796.9017            0   -796.90115    14241.375 
      88  0.038679916    -796.9018            0   -796.90117    14241.807 
      89   0.04366875    -796.9019            0   -796.90119    14242.264 
      90  0.048924718     -796.902            0   -796.90121    14242.745 
      91  0.054441494   -796.90212            0   -796.90123    14243.248 
      92  0.060208775   -796.90224            0   -796.90126    14243.774 
      93   0.06621782   -796.90236            0   -796.90128    14244.321 
      94  0.072458232    -796.9025            0   -796.90132    14244.887 
      95  0.078919841   -796.90263            0   -796.90135    14245.471 
      96  0.085591157   -796.90278            0   -796.90138    14246.074 
      97  0.092460957   -796.90292            0   -796.90142    14246.692 
      98  0.099516371   -796.90308            0   -796.90146    14247.325 
      99   0.10674454   -796.90324            0    -796.9015     14247.97 
     100   0.11413091    -796.9034            0   -796.90154    14248.628 
     101   0.12166014   -796.90357            0   -796.90159    14249.291 
     102   0.12930858   -796.90374            0   -796.90164    14249.963 
     103   0.13702534   -796.90392            0   -796.90169    14250.629 
     104   0.14458504   -796.90411            0   -796.90175    14251.319 
     105   0.15063713   -796.90429            0   -796.90184    14251.921 
     106   0.14615027   -796.90447            0   -796.90209     14252.53 
     107  0.090435335   -796.90462            0   -796.90314    14251.928 
     108  0.013112788   -796.90467            0   -796.90445    14251.248 
     109   0.01393698   -796.90472            0   -796.90449    14251.389 
     110  0.016110089   -796.90478            0   -796.90451    14251.582 
     111  0.018433811   -796.90484            0   -796.90454    14251.783 
     112   0.02089866    -796.9049            0   -796.90456    14251.997 
     113  0.023499617   -796.90497            0   -796.90459    14252.221 
     114  0.026232305   -796.90505            0   -796.90462    14252.456 
     115  0.029091767   -796.90513            0   -796.90465    14252.701 
     116  0.032072901   -796.90521            0   -796.90469    14252.953 
     117  0.035170205    -796.9053            0   -796.90472    14253.214 
     118  0.038377924   -796.90539            0   -796.90476    14253.483 
     119  0.041689936   -796.90548            0    -796.9048    14253.759 
     120  0.045099883   -796.90558            0   -796.90484     14254.04 
     121     0.048601   -796.90568            0   -796.90489    14254.327 
     122  0.052186314   -796.90578            0   -796.90493    14254.618 
     123  0.055848326   -796.90589            0   -796.90498    14254.912 
     124  0.059579517     -796.906            0   -796.90503     14255.21 
     125  0.063371541   -796.90612            0   -796.90509    14255.508 
     126   0.06721659   -796.90624            0   -796.90514    14255.807 
     127  0.071104483   -796.90636            0    -796.9052    14256.104 
     128  0.075028643   -796.90649            0   -796.90527    14256.405 
     129  0.078969309   -796.90662            0   -796.90533     14256.69 
     130  0.082914335   -796.90675            0    -796.9054    14257.008 
     131  0.086631907   -796.90688            0   -796.90547    14257.215 
     132  0.088798802   -796.90702            0   -796.90557    14257.693 
     133  0.076963734   -796.90715            0    -796.9059    14257.106 
     134  0.022526926   -796.90721            0   -796.90684    14257.349 
     135 0.0026452148   -796.90723            0   -796.90719    14256.857 
     136 0.0035925417   -796.90725            0    -796.9072    14256.786 
     137 0.0044000584   -796.90728            0   -796.90721    14256.809 
     138 0.0052588741   -796.90732            0   -796.90723    14256.862 
     139 0.0061886287   -796.90735            0   -796.90725    14256.924 
     140 0.0071879735   -796.90739            0   -796.90727    14256.989 
     141 0.0082552393   -796.90743            0   -796.90729    14257.059 
     142 0.0093884359   -796.90747            0   -796.90732    14257.132 
     143  0.010585421   -796.90752            0   -796.90734    14257.209 
     144  0.011843907   -796.90756            0   -796.90737    14257.289 
     145  0.013161462   -796.90762            0    -796.9074    14257.373 
     146  0.014535509   -796.90767            0   -796.90743    14257.459 
     147  0.015963328   -796.90773            0   -796.90747    14257.547 
     148  0.017442058   -796.90778            0    -796.9075    14257.638 
     149  0.018968696   -796.90785            0   -796.90754    14257.731 
     150  0.020540101   -796.90791            0   -796.90758    14257.825 
     151  0.022153001   -796.90798            0   -796.90762    14257.921 
     152  0.023803985   -796.90805            0   -796.90766    14258.017 
     153  0.025489509   -796.90812            0    -796.9077    14258.114 
     154  0.027205901   -796.90819            0   -796.90775    14258.212 
     155  0.028949368   -796.90827            0   -796.90779    14258.309 
     156  0.030715996   -796.90834            0   -796.90784    14258.406 
     157  0.032501751   -796.90842            0   -796.90789    14258.502 
     158  0.034302455   -796.90851            0   -796.90795    14258.597 
     159  0.036113893   -796.90859            0     -796.908     14258.69 
     160  0.037931667   -796.90868            0   -796.90806    14258.782 
     161    0.0397514   -796.90876            0   -796.90812    14258.872 
     162  0.041568329   -796.90885            0   -796.90818     14258.96 
     163  0.043378374   -796.90894            0   -796.90824    14259.045 
     164  0.045175194   -796.90904            0    -796.9083    14259.128 
     165  0.046956981   -796.90913            0   -796.90837    14259.204 
     166  0.048690439   -796.90923            0   -796.90843     14259.29 
     167  0.050229777   -796.90932            0    -796.9085    14259.324 
     168  0.049047076   -796.90942            0   -796.90862    14259.485 
     169  0.026007862   -796.90948            0   -796.90906    14258.861 
     170 0.00040001724   -796.90949            0   -796.90948    14258.605 
     171 0.00067737042    -796.9095            0   -796.90949    14258.691 
     172 0.0010649693   -796.90951            0   -796.90949    14258.756 
     173 0.0014173199   -796.90953            0    -796.9095    14258.789 
     174 0.0017409306   -796.90954            0   -796.90951    14258.806 
     175 0.0020858004   -796.90956            0   -796.90953    14258.819 
     176 0.0024590034   -796.90958            0   -796.90954    14258.831 
     177 0.0028603187    -796.9096            0   -796.90955    14258.845 
     178 0.0032890539   -796.90962            0   -796.90957    14258.859 
     179 0.0037443837   -796.90965            0   -796.90959    14258.874 
     180 0.0042254107   -796.90968            0   -796.90961     14258.89 
     181 0.0047311777    -796.9097            0   -796.90963    14258.907 
     182 0.0052606716   -796.90973            0   -796.90965    14258.924 
     183 0.0058128284   -796.90976            0   -796.90967    14258.941 
     184 0.0063865299   -796.90979            0   -796.90969    14258.959 
     185 0.0069806062   -796.90983            0   -796.90971    14258.978 
     186 0.0075938385   -796.90986            0   -796.90974    14258.996 
     187 0.0082249587    -796.9099            0   -796.90976    14259.015 
     188 0.0088726502   -796.90994            0   -796.90979    14259.034 
     189 0.0095355624   -796.90997            0   -796.90982    14259.053 
     190  0.010212302   -796.91001            0   -796.90985    14259.072 
     191  0.010901434   -796.91006            0   -796.90988    14259.091 
     192  0.011601495    -796.9101            0   -796.90991     14259.11 
     193  0.012310984   -796.91014            0   -796.90994    14259.129 
     194  0.013028373   -796.91018            0   -796.90997    14259.148 
     195  0.013752108   -796.91023            0   -796.91001    14259.167 
     196  0.014480617   -796.91028            0   -796.91004    14259.185 
     197  0.015212381   -796.91032            0   -796.91007    14259.204 
     198  0.015945794   -796.91037            0   -796.91011    14259.222 
     199  0.016679183   -796.91042            0   -796.91015     14259.24 
     200  0.017411006   -796.91047            0   -796.91018    14259.258 
     201  0.018139369   -796.91052            0   -796.91022    14259.275 
     202  0.018863219   -796.91057            0   -796.91026    14259.293 
     203  0.019577344   -796.91062            0    -796.9103    14259.308 
     204  0.020268676   -796.91067            0   -796.91034    14259.333 
     205  0.020677305   -796.91072            0   -796.91038    14259.313 
     206   0.01798078   -796.91076            0   -796.91047    14259.402 
     207 0.0033362939   -796.91078            0   -796.91073    14259.047 
     208 0.00020729397   -796.91078            0   -796.91078    14259.036 
     209 0.00031975532   -796.91079            0   -796.91078    14259.061 
     210 0.00044033039    -796.9108            0   -796.91079    14259.076 
     211 0.00056201624    -796.9108            0   -796.91079    14259.084 
     212 0.00069296525   -796.91081            0    -796.9108    14259.088 
     213 0.00083650308   -796.91082            0   -796.91081    14259.091 
     214 0.00099277082   -796.91083            0   -796.91081    14259.095 
     215 0.0011614599   -796.91084            0   -796.91082    14259.098 
     216 0.0013422435   -796.91085            0   -796.91083    14259.102 
     217   0.00153478   -796.91087            0   -796.91084    14259.107 
     218 0.0017387049   -796.91088            0   -796.91085    14259.111 
     219 0.0019536311   -796.91089            0   -796.91086    14259.116 
     220 0.0021791492   -796.91091            0   -796.91087    14259.121 
     221 0.0024148288   -796.91092            0   -796.91088    14259.127 
     222 0.0026602187   -796.91094            0   -796.91089    14259.133 
     223 0.0029148486   -796.91095            0   -796.91091    14259.139 
     224 0.0031782296   -796.91097            0   -796.91092    14259.145 
     225 0.0034498556   -796.91099            0   -796.91093    14259.152 
     226  0.003729204   -796.91101            0   -796.91095    14259.159 
     227 0.0040157362   -796.91103            0   -796.91096    14259.167 
     228 0.0043089001   -796.91105            0   -796.91098    14259.175 
     229 0.0046081331   -796.91107            0   -796.91099    14259.183 
     230 0.0049128558   -796.91109            0   -796.91101    14259.192 
     231 0.0052224858   -796.91111            0   -796.91103    14259.201 
     232 0.0055364259   -796.91113            0   -796.91104     14259.21 
     233 0.0058540756   -796.91115            0   -796.91106     14259.22 
     234 0.0061748312   -796.91118            0   -796.91108    14259.231 
     235 0.0064980784    -796.9112            0   -796.91109    14259.242 
     236 0.0068232142   -796.91122            0   -796.91111    14259.253 
     237 0.0071496171   -796.91124            0   -796.91113    14259.266 
     238 0.0074766929   -796.91127            0   -796.91115    14259.279 
     239 0.0078038013   -796.91129            0   -796.91116    14259.292 
     240  0.008130405   -796.91131            0   -796.91118    14259.306 
     241 0.0084558014   -796.91134            0    -796.9112    14259.324 
     242 0.0087797544   -796.91136            0   -796.91122    14259.332 
     243 0.0091034117   -796.91138            0   -796.91123    14259.375 
     244 0.0094490906   -796.91141            0   -796.91125    14259.301 
     245  0.010142514   -796.91142            0   -796.91126    14259.671 
     246    0.0130491   -796.91145            0   -796.91124    14258.665 
     247 0.0019702546   -796.91145            0   -796.91142    14259.032 
     248 0.00084310482   -796.91145            0   -796.91144    14259.281 
     249  0.000481803   -796.91145            0   -796.91145    14259.292 
     250 0.00055985039   -796.91146            0   -796.91145    14259.296 
     251 0.00064464812   -796.91146            0   -796.91145    14259.302 
     252 0.00073482577   -796.91147            0   -796.91146    14259.308 
     253 0.00083025081   -796.91147            0   -796.91146    14259.315 
     254 0.00093075443   -796.91148            0   -796.91147    14259.322 
     255 0.0010361662   -796.91149            0   -796.91147    14259.329 
     256 0.0011463039   -796.91149            0   -796.91147    14259.337 
     257 0.0012609793    -796.9115            0   -796.91148    14259.346 
     258 0.0013799962   -796.91151            0   -796.91148    14259.355 
     259 0.0015031508   -796.91151            0   -796.91149    14259.364 
     260 0.0016302318   -796.91152            0   -796.91149    14259.374 
     261  0.001761023   -796.91153            0    -796.9115    14259.385 
     262 0.0018953022   -796.91154            0   -796.91151    14259.397 
     263 0.0020328422   -796.91154            0   -796.91151    14259.409 
     264 0.0021734095   -796.91155            0   -796.91152    14259.422 
     265 0.0023167699   -796.91156            0   -796.91152    14259.435 
     266 0.0024626804   -796.91157            0   -796.91153     14259.45 
     267 0.0026109045   -796.91157            0   -796.91153    14259.465 
     268 0.0027611851   -796.91158            0   -796.91154     14259.48 
     269  0.002913301   -796.91159            0   -796.91154    14259.497 
     270 0.0030669473    -796.9116            0   -796.91155    14259.515 
     271 0.0032220082   -796.91161            0   -796.91155    14259.534 
     272 0.0033779007   -796.91161            0   -796.91156    14259.551 
     273  0.003535203   -796.91162            0   -796.91156    14259.577 
     274 0.0036909148   -796.91163            0   -796.91157    14259.582 
     275 0.0038479423   -796.91163            0   -796.91157    14259.654 
     276 0.0039407749   -796.91164            0   -796.91158    14259.528 
     277 0.0033961729   -796.91164            0   -796.91159    14259.891 
     278 0.00047351933   -796.91164            0   -796.91164     14259.67 
     279 0.00027142373   -796.91165            0   -796.91164    14259.616 
     280 0.00028423869   -796.91165            0   -796.91164    14259.623 
     281 0.0003296701   -796.91165            0   -796.91164     14259.63 
     282 0.00037822959   -796.91165            0   -796.91164    14259.638 
     283 0.00042981496   -796.91165            0   -796.91165    14259.646 
     284 0.00048434885   -796.91165            0   -796.91165    14259.655 
     285 0.00054174577   -796.91166            0   -796.91165    14259.664 
     286 0.00060191697   -796.91166            0   -796.91165    14259.674 
     287 0.00066476899   -796.91166            0   -796.91165    14259.685 
     288 0.00073020462   -796.91166            0   -796.91165    14259.697 
     289 0.00079812267   -796.91166            0   -796.91165    14259.709 
     290 0.00086841852   -796.91166            0   -796.91165    14259.722 
     291 0.00094098405   -796.91167            0   -796.91165    14259.735 
     292 0.0010157079   -796.91167            0   -796.91165    14259.749 
     293 0.0010924741   -796.91167            0   -796.91165    14259.764 
     294 0.0011711684   -796.91167            0   -796.91165    14259.779 
     295 0.0012516695   -796.91167            0   -796.91165    14259.796 
     296   0.00133386   -796.91167            0   -796.91165    14259.813 
     297 0.0014176119   -796.91167            0   -796.91165    14259.831 
     298 0.0015028081   -796.91167            0   -796.91165     14259.85 
     299 0.0015893104   -796.91167            0   -796.91165    14259.869 
     300 0.0016770104   -796.91167            0   -796.91165     14259.89 
     301 0.0017657316   -796.91167            0   -796.91165    14259.912 
     302 0.0018553286   -796.91167            0   -796.91164    14259.934 
     303 0.0019449105   -796.91167            0   -796.91164    14259.958 
     304 0.0020295153   -796.91167            0   -796.91164    14259.979 
     305 0.0020638688   -796.91167            0   -796.91164    14260.015 
     306  0.001703141   -796.91167            0   -796.91164    14259.999 
     307 0.00038731342   -796.91167            0   -796.91166    14260.036 
     308 7.7211536e-05   -796.91167            0   -796.91167    14260.022 
     309 0.00010565231   -796.91167            0   -796.91167    14260.023 
     310 0.00012796422   -796.91167            0   -796.91167    14260.029 
     311 0.00015178183   -796.91167            0   -796.91166    14260.036 
     312 0.00017752024   -796.91167            0   -796.91166    14260.044 
     313 0.00020514369   -796.91167            0   -796.91166    14260.052 
     314 0.00023461267   -796.91167            0   -796.91166    14260.061 
     315 0.00026588548   -796.91166            0   -796.91166     14260.07 
     316 0.00029891792   -796.91166            0   -796.91166     14260.08 
     317 0.00033366329   -796.91166            0   -796.91166    14260.091 
     318 0.00037007249   -796.91166            0   -796.91165    14260.103 
     319 0.00040809415   -796.91166            0   -796.91165    14260.115 
     320 0.00044767467   -796.91166            0   -796.91165    14260.128 
     321 0.00048875839   -796.91166            0   -796.91165    14260.142 
     322 0.00053128764   -796.91165            0   -796.91165    14260.156 
     323 0.00057520293   -796.91165            0   -796.91164    14260.171 
     324  0.000620443   -796.91165            0   -796.91164    14260.187 
     325 0.00066694495   -796.91165            0   -796.91164    14260.204 
     326 0.00071464441   -796.91165            0   -796.91163    14260.222 
     327 0.00076347562   -796.91164            0   -796.91163     14260.24 
     328 0.00081337159   -796.91164            0   -796.91163    14260.259 
     329 0.0008642642   -796.91164            0   -796.91162    14260.279 
     330 0.00091608436   -796.91163            0   -796.91162      14260.3 
     331 0.00096876211   -796.91163            0   -796.91161    14260.322 
     332 0.0010222268   -796.91163            0   -796.91161    14260.344 
     333 0.0010764071   -796.91162            0    -796.9116    14260.368 
     334 0.0011312312   -796.91162            0    -796.9116    14260.392 
     335 0.0011866272   -796.91161            0   -796.91159    14260.417 
     336 0.0012425203   -796.91161            0   -796.91159    14260.444 
     337 0.0012988309    -796.9116            0   -796.91158    14260.471 
     338 0.0013553493    -796.9116            0   -796.91157    14260.501 
     339 0.0014107066   -796.91159            0   -796.91157    14260.525 
     340 0.0014481102   -796.91158            0   -796.91156    14260.572 
     341 0.0012779702   -796.91158            0   -796.91155     14260.54 
     342 0.00028589532   -796.91157            0   -796.91157    14260.625 
     343 1.3578121e-05   -796.91157            0   -796.91157    14260.609 
     344 2.1899012e-05   -796.91157            0   -796.91157    14260.599 
     345 3.1526418e-05   -796.91157            0   -796.91157    14260.595 
     346 4.1213358e-05   -796.91157            0   -796.91157    14260.597 
     347 5.1492002e-05   -796.91157            0   -796.91157    14260.601 
     348 6.2783347e-05   -796.91157            0   -796.91156    14260.607 
     349 7.5148426e-05   -796.91156            0   -796.91156    14260.614 
     350 8.8575198e-05   -796.91156            0   -796.91156    14260.622 
     351 0.00010304638   -796.91156            0   -796.91156     14260.63 
     352 0.00011854352   -796.91156            0   -796.91156    14260.639 
     353 0.00013504682   -796.91156            0   -796.91155    14260.648 
     354 0.00015253516   -796.91155            0   -796.91155    14260.659 
     355 0.00017098615   -796.91155            0   -796.91155    14260.669 
     356 0.00019037612   -796.91155            0   -796.91154    14260.681 
     357 0.00021068023   -796.91154            0   -796.91154    14260.693 
     358 0.00023187247   -796.91154            0   -796.91154    14260.706 
     359 0.00025392556   -796.91154            0   -796.91153     14260.72 
     360 0.00027681124   -796.91153            0   -796.91153    14260.734 
     361 0.00030050038   -796.91153            0   -796.91152    14260.749 
     362 0.00032496281   -796.91153            0   -796.91152    14260.765 
     363 0.00035016738   -796.91152            0   -796.91152    14260.781 
     364 0.0003760821   -796.91152            0   -796.91151    14260.799 
     365 0.00040267419   -796.91151            0    -796.9115    14260.816 
     366 0.00042991003   -796.91151            0    -796.9115    14260.835 
     367 0.0004577553    -796.9115            0   -796.91149    14260.855 
     368 0.00048617507   -796.91149            0   -796.91149    14260.875 
     369 0.00051513374   -796.91149            0   -796.91148    14260.896 
     370 0.00054459535   -796.91148            0   -796.91147    14260.918 
     371 0.00057452311   -796.91148            0   -796.91147    14260.941 
     372 0.00060488014   -796.91147            0   -796.91146    14260.964 
     373 0.00063562879   -796.91146            0   -796.91145    14260.988 
     374 0.00066673136   -796.91145            0   -796.91144    14261.014 
     375 0.00069815035   -796.91144            0   -796.91143     14261.04 
     376 0.00072984116   -796.91144            0   -796.91142    14261.067 
     377 0.00076176907   -796.91143            0   -796.91142    14261.094 
     378 0.00079363918   -796.91142            0   -796.91141    14261.124 
     379 0.00082367228   -796.91141            0    -796.9114    14261.148 
     380 0.00082485389    -796.9114            0   -796.91139    14261.197 
     381 0.00055633508   -796.91139            0   -796.91138    14261.159 
     382 2.7663509e-05   -796.91139            0   -796.91139    14261.188 
     383 4.3092483e-05   -796.91139            0   -796.91139    14261.207 
     384 4.9772476e-05   -796.91138            0   -796.91138    14261.214 
     385 5.787341e-05   -796.91138            0   -796.91138    14261.222 
     386 6.6557274e-05   -796.91138            0   -796.91138     14261.23 
     387 7.580668e-05   -796.91138            0   -796.91137    14261.239 
     388 8.561086e-05   -796.91137            0   -796.91137    14261.249 
     389 9.595791e-05   -796.91137            0   -796.91137    14261.259 
     390 0.00010683557   -796.91137            0   -796.91136     14261.27 
     391 0.00011823076   -796.91136            0   -796.91136    14261.282 
     392 0.00013012988   -796.91136            0   -796.91136    14261.294 
     393 0.00014251863   -796.91135            0   -796.91135    14261.307 
     394 0.0001553822   -796.91135            0   -796.91135    14261.321 
     395 0.00016870513   -796.91134            0   -796.91134    14261.335 
     396 0.00018247151   -796.91134            0   -796.91133     14261.35 
     397 0.00019666475   -796.91133            0   -796.91133    14261.365 
     398 0.00021126801   -796.91133            0   -796.91132    14261.381 
     399 0.00022626354   -796.91132            0   -796.91132    14261.398 
     400 0.00024163387   -796.91131            0   -796.91131    14261.416 
     401 0.00025735973   -796.91131            0    -796.9113    14261.434 
     402 0.00027342413    -796.9113            0    -796.9113    14261.453 
     403 0.00028980367   -796.91129            0   -796.91129    14261.473 
     404 0.00030648572   -796.91129            0   -796.91128    14261.492 
     405 0.00032342112   -796.91128            0   -796.91127    14261.514 
     406 0.00034060452   -796.91127            0   -796.91126    14261.533 
     407 0.00035750887   -796.91126            0   -796.91126    14261.561 
     408 0.00037175356   -796.91125            0   -796.91125    14261.568 
     409 0.00035826288   -796.91124            0   -796.91124    14261.634 
     410 0.00020236573   -796.91124            0   -796.91123     14261.56 
     411 1.9018774e-05   -796.91124            0   -796.91124    14261.599 
     412 2.1926788e-05   -796.91123            0   -796.91123     14261.62 
     413 2.5478301e-05   -796.91123            0   -796.91123    14261.627 
     414 3.0205838e-05   -796.91123            0   -796.91123    14261.633 
     415 3.5326705e-05   -796.91123            0   -796.91123     14261.64 
     416 4.0827566e-05   -796.91122            0   -796.91122    14261.648 
     417 4.670201e-05   -796.91122            0   -796.91122    14261.656 
     418 5.2943305e-05   -796.91122            0   -796.91122    14261.665 
     419 5.9544255e-05   -796.91121            0   -796.91121    14261.674 
     420 6.6497237e-05   -796.91121            0   -796.91121    14261.684 
     421 7.3794201e-05    -796.9112            0    -796.9112    14261.694 
     422 8.1426687e-05    -796.9112            0    -796.9112    14261.705 
     423 8.9385826e-05    -796.9112            0   -796.91119    14261.716 
     424 9.7662362e-05   -796.91119            0   -796.91119    14261.729 
     425 0.00010624665   -796.91119            0   -796.91118    14261.741 
     426 0.0001151287   -796.91118            0   -796.91118    14261.755 
     427 0.00012429812   -796.91117            0   -796.91117    14261.769 
     428 0.00013374423   -796.91117            0   -796.91117    14261.783 
     429 0.00014345596   -796.91116            0   -796.91116    14261.798 
     430 0.00015342196   -796.91116            0   -796.91115    14261.814 
     431 0.00016363056   -796.91115            0   -796.91115     14261.83 
     432 0.00017406981   -796.91114            0   -796.91114    14261.847 
     433 0.00018472741   -796.91113            0   -796.91113    14261.865 
     434  0.000195591   -796.91113            0   -796.91112    14261.883 
     435 0.00020664744   -796.91112            0   -796.91112    14261.902 
     436 0.00021788466   -796.91111            0   -796.91111    14261.921 
     437 0.00022928683    -796.9111            0    -796.9111    14261.941 
     438 0.00024084744   -796.91109            0   -796.91109    14261.961 
     439 0.00025252828   -796.91109            0   -796.91108    14261.984 
     440 0.00026435697   -796.91108            0   -796.91107    14262.003 
     441 0.00027580128   -796.91107            0   -796.91106    14262.033 
     442 0.00028423663   -796.91106            0   -796.91105     14262.03 
     443 0.0002497256   -796.91105            0   -796.91104    14262.129 
     444 5.5071437e-05   -796.91104            0   -796.91104    14262.058 
     445 1.3782417e-05   -796.91104            0   -796.91104    14262.077 
     446 1.5408216e-05   -796.91104            0   -796.91104    14262.083 
     447 1.828019e-05   -796.91104            0   -796.91104    14262.089 
     448 2.1396051e-05   -796.91104            0   -796.91103    14262.095 
     449 2.4744823e-05   -796.91103            0   -796.91103    14262.102 
     450 2.8322606e-05   -796.91103            0   -796.91103    14262.109 
     451 3.2125415e-05   -796.91103            0   -796.91103    14262.117 
     452 3.6148958e-05   -796.91102            0   -796.91102    14262.125 
     453 4.0388691e-05   -796.91102            0   -796.91102    14262.134 
     454 4.4839806e-05   -796.91101            0   -796.91101    14262.143 
     455 4.9497246e-05   -796.91101            0   -796.91101    14262.153 
     456  5.43557e-05   -796.91101            0     -796.911    14262.163 
     457 5.9409619e-05     -796.911            0     -796.911    14262.174 
     458 6.4653214e-05     -796.911            0   -796.91099    14262.185 
     459 7.0080468e-05   -796.91099            0   -796.91099    14262.197 
     460 7.5685135e-05   -796.91099            0   -796.91098    14262.209 
     461 8.1460759e-05   -796.91098            0   -796.91098    14262.222 
     462 8.7400658e-05   -796.91097            0   -796.91097    14262.236 
     463 9.3497969e-05   -796.91097            0   -796.91097     14262.25 
     464 9.9745584e-05   -796.91096            0   -796.91096    14262.264 
     465 0.0001061363   -796.91095            0   -796.91095    14262.279 
     466 0.00011266252   -796.91095            0   -796.91095    14262.295 
     467 0.00011931693   -796.91094            0   -796.91094    14262.311 
     468 0.00012609095   -796.91093            0   -796.91093    14262.327 
     469 0.00013297859   -796.91092            0   -796.91092    14262.344 
     470 0.00013996604   -796.91092            0   -796.91091    14262.362 
     471 0.00014705945   -796.91091            0   -796.91091     14262.38 
     472 0.00015418897    -796.9109            0    -796.9109      14262.4 
     473 0.00016136515   -796.91089            0   -796.91089    14262.414 
     474 0.00016661481   -796.91088            0   -796.91088    14262.451 
     475 0.00015570617   -796.91087            0   -796.91087    14262.416 
     476 5.2662703e-05   -796.91087            0   -796.91087    14262.493 
     477 4.5627631e-06   -796.91087            0   -796.91087    14262.478 
     478 5.2485577e-06   -796.91087            0   -796.91087    14262.471 
     479 6.271993e-06   -796.91087            0   -796.91087    14262.472 
     480 7.6889228e-06   -796.91086            0   -796.91086    14262.475 
     481 9.3058301e-06   -796.91086            0   -796.91086    14262.479 
     482 1.1076821e-05   -796.91086            0   -796.91086    14262.484 
     483 1.2996043e-05   -796.91086            0   -796.91086     14262.49 
     484 1.5061113e-05   -796.91085            0   -796.91085    14262.496 
     485 1.726975e-05   -796.91085            0   -796.91085    14262.502 
     486 1.9619493e-05   -796.91085            0   -796.91085    14262.509 
     487 2.2107717e-05   -796.91085            0   -796.91084    14262.516 
     488 2.4731627e-05   -796.91084            0   -796.91084    14262.523 
     489 2.7488268e-05   -796.91084            0   -796.91084    14262.531 
     490 3.0374521e-05   -796.91083            0   -796.91083     14262.54 
     491 3.3387112e-05   -796.91083            0   -796.91083    14262.549 
     492 3.6522612e-05   -796.91083            0   -796.91082    14262.558 
     493 3.9777442e-05   -796.91082            0   -796.91082    14262.568 
     494 4.3147873e-05   -796.91082            0   -796.91082    14262.579 
     495 4.663003e-05   -796.91081            0   -796.91081    14262.589 
     496 5.0219895e-05   -796.91081            0    -796.9108    14262.601 
     497 5.3913316e-05    -796.9108            0    -796.9108    14262.612 
     498 5.7706006e-05   -796.91079            0   -796.91079    14262.624 
     499 6.1593549e-05   -796.91079            0   -796.91079    14262.637 
     500 6.5571399e-05   -796.91078            0   -796.91078     14262.65 
     501 6.9634893e-05   -796.91078            0   -796.91077    14262.664 
     502 7.3779235e-05   -796.91077            0   -796.91077    14262.677 
     503 7.7999551e-05   -796.91076            0   -796.91076    14262.692 
     504 8.2290753e-05   -796.91076            0   -796.91075    14262.707 
     505 8.6647938e-05   -796.91075            0   -796.91075    14262.722 
     506 9.1065217e-05   -796.91074            0   -796.91074    14262.738 
     507 9.5539245e-05   -796.91073            0   -796.91073    14262.754 
     508 0.00010005748   -796.91073            0   -796.91072    14262.771 
     509 0.00010463443   -796.91072            0   -796.91072    14262.787 
     510 0.00010913573   -796.91071            0   -796.91071    14262.808 
     511 0.00011328531    -796.9107            0    -796.9107    14262.814 
     512 0.00010797213   -796.91069            0   -796.91069    14262.875 
     513 4.2377064e-05   -796.91069            0   -796.91069    14262.811 
     514 7.1337376e-07   -796.91069            0   -796.91069    14262.819 
     515 1.1182486e-06   -796.91069            0   -796.91069    14262.829 
     516 1.5720611e-06   -796.91069            0   -796.91069     14262.84 
     517 2.0713692e-06   -796.91068            0   -796.91068    14262.848 
     518 2.6712977e-06   -796.91068            0   -796.91068    14262.854 
     519 3.4013015e-06   -796.91068            0   -796.91068    14262.858 
     520 4.2397909e-06   -796.91068            0   -796.91068    14262.862 
     521 5.1710655e-06   -796.91068            0   -796.91068    14262.866 
     522 6.1915697e-06   -796.91068            0   -796.91068     14262.87 
     523 7.3003334e-06   -796.91067            0   -796.91067    14262.874 
     524 8.4962129e-06   -796.91067            0   -796.91067    14262.879 
     525 9.7778785e-06   -796.91067            0   -796.91067    14262.884 
     526 1.1143899e-05   -796.91067            0   -796.91067     14262.89 
     527 1.2592741e-05   -796.91066            0   -796.91066    14262.896 
     528 1.4122772e-05   -796.91066            0   -796.91066    14262.902 
     529 1.5732258e-05   -796.91066            0   -796.91066    14262.909 
     530 1.7419369e-05   -796.91065            0   -796.91065    14262.916 
     531 1.918218e-05   -796.91065            0   -796.91065    14262.924 
     532 2.1018669e-05   -796.91065            0   -796.91065    14262.932 
     533 2.2926722e-05   -796.91064            0   -796.91064     14262.94 
     534 2.4904137e-05   -796.91064            0   -796.91064    14262.949 
     535 2.6948619e-05   -796.91063            0   -796.91063    14262.958 
     536 2.9057788e-05   -796.91063            0   -796.91063    14262.967 
     537 3.1229179e-05   -796.91062            0   -796.91062    14262.977 
     538 3.3460244e-05   -796.91062            0   -796.91062    14262.987 
     539 3.5748354e-05   -796.91061            0   -796.91061    14262.998 
     540 3.8090798e-05   -796.91061            0   -796.91061    14263.009 
     541 4.0484794e-05    -796.9106            0    -796.9106     14263.02 
     542 4.2927478e-05    -796.9106            0    -796.9106    14263.032 
     543 4.5415924e-05   -796.91059            0   -796.91059    14263.044 
     544 4.7947114e-05   -796.91059            0   -796.91058    14263.057 
     545 5.0518013e-05   -796.91058            0   -796.91058    14263.069 
     546 5.3125378e-05   -796.91057            0   -796.91057    14263.083 
     547 5.5766326e-05   -796.91057            0   -796.91056    14263.096 
     548 5.8436567e-05   -796.91056            0   -796.91056    14263.111 
     549 6.1136149e-05   -796.91055            0   -796.91055    14263.125 
     550 6.3849128e-05   -796.91054            0   -796.91054     14263.14 
     551 6.6608296e-05   -796.91054            0   -796.91054    14263.154 
     552 6.912708e-05   -796.91053            0   -796.91053    14263.176 
     553 7.024745e-05   -796.91052            0   -796.91052    14263.166 
     554 4.5998244e-05   -796.91052            0   -796.91051    14263.243 
     555 4.2318024e-07   -796.91052            0   -796.91052    14263.236 
     556 6.9115672e-07   -796.91052            0   -796.91052    14263.227 
     557 9.8642442e-07   -796.91051            0   -796.91051    14263.217 
     558 1.2658313e-06   -796.91051            0   -796.91051    14263.209 
     559 1.5303001e-06   -796.91051            0   -796.91051    14263.205 
     560 1.8828244e-06   -796.91051            0   -796.91051    14263.205 
     561 2.3417527e-06   -796.91051            0   -796.91051    14263.207 
     562 2.8686115e-06   -796.91051            0   -796.91051     14263.21 
     563 3.4499293e-06   -796.91051            0   -796.91051    14263.213 
     564 4.0831675e-06   -796.91051            0   -796.91051    14263.217 
     565 4.7673858e-06    -796.9105            0    -796.9105    14263.221 
     566 5.5018087e-06    -796.9105            0    -796.9105    14263.225 
     567 6.285607e-06    -796.9105            0    -796.9105     14263.23 
     568 7.1178894e-06    -796.9105            0    -796.9105    14263.235 
     569 7.9977052e-06   -796.91049            0   -796.91049     14263.24 
     570 8.9240441e-06   -796.91049            0   -796.91049    14263.246 
     571 9.895838e-06   -796.91049            0   -796.91049    14263.252 
     572 1.0911961e-05   -796.91048            0   -796.91048    14263.258 
     573 1.1971231e-05   -796.91048            0   -796.91048    14263.264 
     574 1.307241e-05   -796.91048            0   -796.91048    14263.271 
     575 1.4214207e-05   -796.91047            0   -796.91047    14263.278 
     576 1.5395275e-05   -796.91047            0   -796.91047    14263.286 
     577 1.6614217e-05   -796.91047            0   -796.91047    14263.294 
     578 1.7869584e-05   -796.91046            0   -796.91046    14263.302 
     579 1.9159877e-05   -796.91046            0   -796.91046     14263.31 
     580 2.0483546e-05   -796.91045            0   -796.91045    14263.319 
     581   2.1839e-05   -796.91045            0   -796.91045    14263.328 
     582 2.322459e-05   -796.91044            0   -796.91044    14263.338 
     583 2.4638641e-05   -796.91044            0   -796.91044    14263.347 
     584 2.6079395e-05   -796.91043            0   -796.91043    14263.357 
     585 2.7545145e-05   -796.91043            0   -796.91043    14263.368 
     586 2.9033895e-05   -796.91042            0   -796.91042    14263.378 
     587 3.0544312e-05   -796.91042            0   -796.91042    14263.389 
     588 3.2072891e-05   -796.91041            0   -796.91041    14263.401 
     589 3.3622693e-05   -796.91041            0   -796.91041    14263.412 
     590 3.5172914e-05    -796.9104            0    -796.9104    14263.425 
     591 3.6762217e-05   -796.91039            0   -796.91039    14263.434 
     592 3.7885311e-05   -796.91039            0   -796.91039    14263.457 
     593 3.5430133e-05   -796.91038            0   -796.91038    14263.434 
     594 8.589084e-06   -796.91038            0   -796.91038    14263.476 
     595 9.9567551e-07   -796.91038            0   -796.91038     14263.47 
     596 1.1539047e-06   -796.91038            0   -796.91038    14263.468 
     597 1.4116764e-06   -796.91038            0   -796.91038     14263.47 
     598 1.7305544e-06   -796.91038            0   -796.91038    14263.472 
     599 2.0853893e-06   -796.91037            0   -796.91037    14263.475 
     600 2.4724654e-06   -796.91037            0   -796.91037    14263.478 
     601 2.8910351e-06   -796.91037            0   -796.91037    14263.481 
     602 3.3406141e-06   -796.91037            0   -796.91037    14263.485 
     603 3.820687e-06   -796.91037            0   -796.91037    14263.489 
     604 4.3306994e-06   -796.91036            0   -796.91036    14263.493 
     605 4.8700594e-06   -796.91036            0   -796.91036    14263.498 
     606 5.4381378e-06   -796.91036            0   -796.91036    14263.502 
     607 6.034269e-06   -796.91036            0   -796.91036    14263.507 
     608 6.6577512e-06   -796.91035            0   -796.91035    14263.513 
     609 7.3078471e-06   -796.91035            0   -796.91035    14263.518 
     610 7.9837844e-06   -796.91035            0   -796.91035    14263.524 
     611 8.6847569e-06   -796.91035            0   -796.91035     14263.53 
     612 9.4099245e-06   -796.91034            0   -796.91034    14263.536 
     613 1.0158415e-05   -796.91034            0   -796.91034    14263.543 
     614 1.0929322e-05   -796.91034            0   -796.91033     14263.55 
     615 1.1721711e-05   -796.91033            0   -796.91033    14263.557 
     616 1.2534613e-05   -796.91033            0   -796.91033    14263.564 
     617 1.3367033e-05   -796.91032            0   -796.91032    14263.572 
     618 1.4217942e-05   -796.91032            0   -796.91032     14263.58 
     619 1.5086295e-05   -796.91032            0   -796.91032    14263.588 
     620 1.5970985e-05   -796.91031            0   -796.91031    14263.597 
     621 1.6870971e-05   -796.91031            0   -796.91031    14263.605 
     622 1.7784932e-05    -796.9103            0    -796.9103    14263.614 
     623 1.8712254e-05    -796.9103            0    -796.9103    14263.623 
     624 1.9650034e-05   -796.91029            0   -796.91029    14263.633 
     625 2.0602308e-05   -796.91029            0   -796.91029    14263.643 
     626 2.1545576e-05   -796.91028            0   -796.91028    14263.654 
     627 2.2500504e-05   -796.91028            0   -796.91028     14263.66 
     628 2.2578464e-05   -796.91027            0   -796.91027    14263.684 
     629 1.5581553e-05   -796.91027            0   -796.91027    14263.656 
     630 3.9469696e-07   -796.91027            0   -796.91027    14263.665 
     631 5.2049166e-07   -796.91027            0   -796.91027    14263.674 
     632 6.2884082e-07   -796.91027            0   -796.91027    14263.681 
     633 7.489528e-07   -796.91026            0   -796.91026    14263.685 
     634 9.2628345e-07   -796.91026            0   -796.91026    14263.687 
     635 1.1332608e-06   -796.91026            0   -796.91026     14263.69 
     636 1.3604525e-06   -796.91026            0   -796.91026    14263.692 
     637 1.6074838e-06   -796.91026            0   -796.91026    14263.695 
     638 1.8741586e-06   -796.91026            0   -796.91026    14263.698 
     639 2.160163e-06   -796.91026            0   -796.91026    14263.701 
     640 2.4651637e-06   -796.91025            0   -796.91025    14263.704 
     641 2.7888022e-06   -796.91025            0   -796.91025    14263.708 
     642 3.1306965e-06   -796.91025            0   -796.91025    14263.712 
     643 3.4904407e-06   -796.91025            0   -796.91025    14263.716 
     644 3.8676062e-06   -796.91025            0   -796.91025     14263.72 
     645 4.2617411e-06   -796.91024            0   -796.91024    14263.724 
     646 4.6723716e-06   -796.91024            0   -796.91024    14263.729 
     647 5.0990013e-06   -796.91024            0   -796.91024    14263.734 
     648 5.5411129e-06   -796.91024            0   -796.91024    14263.739 
     649 5.9981672e-06   -796.91023            0   -796.91023    14263.745 
     650 6.4696054e-06   -796.91023            0   -796.91023     14263.75 
     651 6.9548467e-06   -796.91023            0   -796.91023    14263.756 
     652 7.4532942e-06   -796.91022            0   -796.91022    14263.762 
     653 7.9643244e-06   -796.91022            0   -796.91022    14263.769 
     654 8.4873113e-06   -796.91022            0   -796.91022    14263.775 
     655 9.0215733e-06   -796.91021            0   -796.91021    14263.782 
     656 9.5665039e-06   -796.91021            0   -796.91021    14263.789 
     657 1.0121236e-05   -796.91021            0   -796.91021    14263.796 
     658 1.0685551e-05    -796.9102            0    -796.9102    14263.804 
     659 1.1257182e-05    -796.9102            0    -796.9102    14263.811 
     660 1.1839259e-05   -796.91019            0   -796.91019    14263.819 
     661 1.2408154e-05   -796.91019            0   -796.91019    14263.828 
     662 1.2922538e-05   -796.91019            0   -796.91019    14263.833 
     663 1.213491e-05   -796.91018            0   -796.91018    14263.852 
     664 4.783318e-06   -796.91018            0   -796.91018    14263.836 
     665 1.3800727e-07   -796.91018            0   -796.91018     14263.84 
     666 2.0514354e-07   -796.91018            0   -796.91018    14263.844 
     667 2.8342339e-07   -796.91018            0   -796.91018    14263.848 
     668 3.7300811e-07   -796.91018            0   -796.91018     14263.85 
     669 4.7924637e-07   -796.91018            0   -796.91018    14263.852 
     670  6.00981e-07   -796.91018            0   -796.91018    14263.854 
     671 7.3627838e-07   -796.91017            0   -796.91017    14263.856 
     672 8.8477699e-07   -796.91017            0   -796.91017    14263.858 
     673 1.0463685e-06   -796.91017            0   -796.91017     14263.86 
     674 1.2208746e-06   -796.91017            0   -796.91017    14263.863 
     675 1.4080889e-06   -796.91017            0   -796.91017    14263.865 
     676 1.6077903e-06   -796.91017            0   -796.91017    14263.868 
     677 1.8197409e-06   -796.91017            0   -796.91017    14263.871 
     678 2.0436875e-06   -796.91016            0   -796.91016    14263.875 
     679 2.2793608e-06   -796.91016            0   -796.91016    14263.878 
     680 2.5264764e-06   -796.91016            0   -796.91016    14263.882 
     681 2.7847347e-06   -796.91016            0   -796.91016    14263.886 
     682 3.0538213e-06   -796.91016            0   -796.91016     14263.89 
     683 3.3334069e-06   -796.91015            0   -796.91015    14263.894 
     684 3.6231484e-06   -796.91015            0   -796.91015    14263.898 
     685 3.9226884e-06   -796.91015            0   -796.91015    14263.903 
     686 4.2316562e-06   -796.91015            0   -796.91015    14263.908 
     687 4.5496671e-06   -796.91014            0   -796.91014    14263.913 
     688 4.876325e-06   -796.91014            0   -796.91014    14263.918 
     689 5.211218e-06   -796.91014            0   -796.91014    14263.924 
     690 5.5539292e-06   -796.91014            0   -796.91014    14263.929 
     691 5.9040125e-06   -796.91013            0   -796.91013    14263.935 
     692 6.2610545e-06   -796.91013            0   -796.91013    14263.941 
     693 6.6245132e-06   -796.91013            0   -796.91013    14263.947 
     694 6.9941648e-06   -796.91012            0   -796.91012    14263.953 
     695 7.3687761e-06   -796.91012            0   -796.91012     14263.96 
     696 7.7500309e-06   -796.91012            0   -796.91012    14263.967 
     697 8.1276551e-06   -796.91011            0   -796.91011    14263.974 
     698 8.5047493e-06   -796.91011            0   -796.91011    14263.979 
     699 8.4813757e-06    -796.9101            0    -796.9101    14263.994 
     700 5.4937105e-06    -796.9101            0    -796.9101     14263.98 
     701 1.3808529e-07    -796.9101            0    -796.9101    14263.984 
     702 1.8638376e-07    -796.9101            0    -796.9101    14263.989 
     703 2.2916072e-07    -796.9101            0    -796.9101    14263.993 
     704 2.7618292e-07    -796.9101            0    -796.9101    14263.995 
     705 3.4546386e-07    -796.9101            0    -796.9101    14263.997 
     706 4.2872108e-07    -796.9101            0    -796.9101    14263.998 
     707 5.2099563e-07    -796.9101            0    -796.9101        14264 
     708 6.2188681e-07    -796.9101            0    -796.9101    14264.002 
     709 7.3132492e-07    -796.9101            0    -796.9101    14264.004 
     710 8.4918038e-07   -796.91009            0   -796.91009    14264.006 
     711 9.7531291e-07   -796.91009            0   -796.91009    14264.009 
     712 1.1095714e-06   -796.91009            0   -796.91009    14264.011 
     713 1.2517944e-06   -796.91009            0   -796.91009    14264.014 
     714 1.4018097e-06   -796.91009            0   -796.91009    14264.017 
     715 1.5594351e-06   -796.91009            0   -796.91009     14264.02 
     716 1.7244784e-06   -796.91009            0   -796.91009    14264.023 
     717 1.8967373e-06   -796.91008            0   -796.91008    14264.026 
     718 2.0759999e-06   -796.91008            0   -796.91008     14264.03 
     719 2.2620448e-06   -796.91008            0   -796.91008    14264.034 
     720 2.4546414e-06   -796.91008            0   -796.91008    14264.037 
     721  2.65355e-06   -796.91008            0   -796.91008    14264.041 
     722 2.858522e-06   -796.91007            0   -796.91007    14264.046 
     723 3.0693005e-06   -796.91007            0   -796.91007     14264.05 
     724 3.2856198e-06   -796.91007            0   -796.91007    14264.054 
     725 3.5072069e-06   -796.91007            0   -796.91007    14264.059 
     726 3.7337796e-06   -796.91006            0   -796.91006    14264.064 
     727 3.9650513e-06   -796.91006            0   -796.91006    14264.069 
     728 4.2007201e-06   -796.91006            0   -796.91006    14264.074 
     729 4.440499e-06   -796.91005            0   -796.91005     14264.08 
     730 4.6840329e-06   -796.91005            0   -796.91005    14264.085 
     731 4.9311441e-06   -796.91005            0   -796.91005    14264.091 
     732 5.1810768e-06   -796.91005            0   -796.91005    14264.096 
     733 5.4350616e-06   -796.91004            0   -796.91004    14264.102 
     734 5.6885293e-06   -796.91004            0   -796.91004    14264.109 
     735 5.9751073e-06   -796.91004            0   -796.91004    14264.113 
     736 6.4397944e-06   -796.91003            0   -796.91003    14264.127 
     737 9.5737406e-06   -796.91003            0   -796.91003    14264.109 
     738 3.1959517e-06   -796.91003            0   -796.91003    14264.128 
     739 3.3153574e-07   -796.91003            0   -796.91003    14264.129 
     740   3.9564e-07   -796.91003            0   -796.91003    14264.131 
     741 4.6545344e-07   -796.91003            0   -796.91003    14264.133 
     742 5.4072476e-07   -796.91003            0   -796.91003    14264.135 
     743 6.2127743e-07   -796.91002            0   -796.91002    14264.136 
     744 7.0704454e-07   -796.91002            0   -796.91002    14264.139 
     745 7.9790572e-07   -796.91002            0   -796.91002    14264.141 
     746 8.9376188e-07   -796.91002            0   -796.91002    14264.143 
     747 9.944864e-07   -796.91002            0   -796.91002    14264.146 
     748 1.0999649e-06   -796.91002            0   -796.91002    14264.149 
     749 1.2100573e-06   -796.91002            0   -796.91002    14264.151 
     750 1.3246409e-06   -796.91001            0   -796.91001    14264.154 
     751 1.443555e-06   -796.91001            0   -796.91001    14264.157 
     752 1.5666804e-06   -796.91001            0   -796.91001    14264.161 
     753 1.6938151e-06   -796.91001            0   -796.91001    14264.164 
     754 1.8248881e-06   -796.91001            0   -796.91001    14264.168 
     755 1.9595624e-06   -796.91001            0   -796.91001    14264.171 
     756 2.0980356e-06      -796.91            0      -796.91    14264.175 
     757 2.239335e-06      -796.91            0      -796.91    14264.179 
     758 2.3853787e-06      -796.91            0      -796.91    14264.183 
     759 2.531984e-06      -796.91            0      -796.91    14264.188 
     760 2.700132e-06   -796.90999            0   -796.90999    14264.191 
     761 2.917319e-06   -796.90999            0   -796.90999    14264.199 
     762 3.7596858e-06   -796.90999            0   -796.90999    14264.192 
     763 4.4520255e-06   -796.90999            0   -796.90999    14264.214 
     764 6.0015841e-07   -796.90999            0   -796.90999    14264.208 
     765 2.6677355e-07   -796.90999            0   -796.90999    14264.205 
     766 1.9318943e-07   -796.90999            0   -796.90999    14264.206 
     767 2.3157681e-07   -796.90999            0   -796.90999    14264.207 
     768 2.7775237e-07   -796.90999            0   -796.90999    14264.208 
     769 3.2797513e-07   -796.90998            0   -796.90998     14264.21 
     770 3.8216422e-07   -796.90998            0   -796.90998    14264.212 
     771 4.4025817e-07   -796.90998            0   -796.90998    14264.213 
     772 5.0218581e-07   -796.90998            0   -796.90998    14264.215 
     773 5.678728e-07   -796.90998            0   -796.90998    14264.217 
     774 6.3723888e-07   -796.90998            0   -796.90998    14264.219 
     775 7.1019972e-07   -796.90998            0   -796.90998    14264.221 
     776 7.8666556e-07   -796.90998            0   -796.90998    14264.224 
     777 8.6654272e-07   -796.90998            0   -796.90998    14264.226 
     778 9.4973214e-07   -796.90997            0   -796.90997    14264.229 
     779 1.0361314e-06   -796.90997            0   -796.90997    14264.232 
     780 1.1256322e-06   -796.90997            0   -796.90997    14264.235 
     781 1.2181246e-06   -796.90997            0   -796.90997    14264.238 
     782 1.3134899e-06   -796.90997            0   -796.90997    14264.241 
     783 1.4116143e-06   -796.90997            0   -796.90997    14264.244 
     784 1.512362e-06   -796.90996            0   -796.90996    14264.247 
     785 1.6156336e-06   -796.90996            0   -796.90996    14264.251 
     786 1.7212317e-06   -796.90996            0   -796.90996    14264.254 
     787 1.829194e-06   -796.90996            0   -796.90996    14264.258 
     788 1.9389345e-06   -796.90996            0   -796.90996    14264.262 
     789 2.0517201e-06   -796.90995            0   -796.90995    14264.266 
     790 2.1644324e-06   -796.90995            0   -796.90995     14264.27 
     791 2.2992446e-06   -796.90995            0   -796.90995    14264.273 
     792 2.5252688e-06   -796.90995            0   -796.90995    14264.282 
     793 3.8061915e-06   -796.90995            0   -796.90995    14264.271 
     794 2.3817906e-06   -796.90994            0   -796.90994    14264.288 
     795 2.2614141e-07   -796.90994            0   -796.90994    14264.285 
     796 1.3133665e-07   -796.90994            0   -796.90994    14264.285 
     797 1.5448108e-07   -796.90994            0   -796.90994    14264.286 
     798 1.8604484e-07   -796.90994            0   -796.90994    14264.287 
     799 2.2047819e-07   -796.90994            0   -796.90994    14264.289 
     800 2.5769308e-07   -796.90994            0   -796.90994     14264.29 
     801 2.9765061e-07   -796.90994            0   -796.90994    14264.291 
     802 3.4030093e-07   -796.90994            0   -796.90994    14264.293 
     803 3.8559349e-07   -796.90994            0   -796.90994    14264.295 
     804 4.3347278e-07   -796.90994            0   -796.90994    14264.297 
     805 4.8388098e-07   -796.90994            0   -796.90994    14264.298 
     806 5.3675607e-07   -796.90994            0   -796.90993      14264.3 
     807 5.920337e-07   -796.90993            0   -796.90993    14264.303 
     808 6.4964525e-07   -796.90993            0   -796.90993    14264.305 
     809 7.0952049e-07   -796.90993            0   -796.90993    14264.307 
     810 7.7158399e-07   -796.90993            0   -796.90993     14264.31 
     811 8.3576089e-07   -796.90993            0   -796.90993    14264.312 
     812 9.0196732e-07   -796.90993            0   -796.90993    14264.315 
     813 9.7012615e-07   -796.90993            0   -796.90993    14264.318 
     814 1.0401376e-06   -796.90992            0   -796.90992    14264.321 
     815 1.1119504e-06   -796.90992            0   -796.90992    14264.324 
     816 1.1853875e-06   -796.90992            0   -796.90992    14264.327 
     817 1.2605807e-06   -796.90992            0   -796.90992     14264.33 
     818 1.3368636e-06   -796.90992            0   -796.90992    14264.333 
     819 1.4160487e-06   -796.90992            0   -796.90992    14264.336 
     820 1.4950296e-06   -796.90991            0   -796.90991    14264.341 
     821 1.6110671e-06   -796.90991            0   -796.90991    14264.342 
     822 1.9249845e-06   -796.90991            0   -796.90991    14264.353 
     823 2.8094829e-06   -796.90991            0   -796.90991    14264.339 
     824 2.5166471e-07   -796.90991            0   -796.90991    14264.344 
     825 1.713779e-07   -796.90991            0   -796.90991    14264.349 
     826 8.7860613e-08   -796.90991            0   -796.90991    14264.351 
     827 9.0896733e-08   -796.90991            0   -796.90991    14264.352 
     828 1.1115081e-07   -796.90991            0   -796.90991    14264.353 
     829 1.3370684e-07   -796.90991            0   -796.90991    14264.354 
     830 1.5825886e-07   -796.90991            0   -796.90991    14264.355 
     831 1.8478308e-07    -796.9099            0    -796.9099    14264.356 
     832 2.1324694e-07    -796.9099            0    -796.9099    14264.358 
     833 2.4361673e-07    -796.9099            0    -796.9099    14264.359 
     834 2.7585575e-07    -796.9099            0    -796.9099     14264.36 
     835 3.099252e-07    -796.9099            0    -796.9099    14264.362 
     836 3.4578367e-07    -796.9099            0    -796.9099    14264.364 
     837 3.8338766e-07    -796.9099            0    -796.9099    14264.365 
     838 4.2269118e-07    -796.9099            0    -796.9099    14264.367 
     839 4.6364626e-07    -796.9099            0    -796.9099    14264.369 
     840 5.0620241e-07    -796.9099            0    -796.9099    14264.371 
     841 5.5030763e-07    -796.9099            0    -796.9099    14264.374 
     842 5.9590685e-07   -796.90989            0   -796.90989    14264.376 
     843 6.4294482e-07   -796.90989            0   -796.90989    14264.378 
     844 6.913609e-07   -796.90989            0   -796.90989    14264.381 
     845 7.4109983e-07   -796.90989            0   -796.90989    14264.383 
     846 7.9208838e-07   -796.90989            0   -796.90989    14264.386 
     847 8.4429039e-07   -796.90989            0   -796.90989    14264.388 
     848 8.9756979e-07   -796.90989            0   -796.90989    14264.391 
     849 9.5205874e-07   -796.90988            0   -796.90988    14264.394 
     850 1.0071564e-06   -796.90988            0   -796.90988    14264.397 
     851 1.0648559e-06   -796.90988            0   -796.90988      14264.4 
     852 1.1231685e-06   -796.90988            0   -796.90988    14264.404 
     853 1.2426409e-06   -796.90988            0   -796.90988    14264.404 
     854 1.7528117e-06   -796.90988            0   -796.90988    14264.417 
     855 1.6302899e-06   -796.90987            0   -796.90987    14264.405 
     856 9.9019206e-08   -796.90987            0   -796.90987    14264.408 
     857 6.3384985e-08   -796.90987            0   -796.90987    14264.411 
     858 4.9088817e-08   -796.90987            0   -796.90987    14264.412 
     859 5.7755452e-08   -796.90987            0   -796.90987    14264.413 
     860 7.137853e-08   -796.90987            0   -796.90987    14264.414 
     861 8.6516843e-08   -796.90987            0   -796.90987    14264.414 
     862 1.0305091e-07   -796.90987            0   -796.90987    14264.415 
     863 1.2096819e-07   -796.90987            0   -796.90987    14264.416 
     864 1.4024667e-07   -796.90987            0   -796.90987    14264.417 
     865 1.6086379e-07   -796.90987            0   -796.90987    14264.419 
     866 1.8279485e-07   -796.90987            0   -796.90987     14264.42 
     867 2.0601371e-07   -796.90987            0   -796.90987    14264.421 
     868 2.3049244e-07   -796.90987            0   -796.90987    14264.423 
     869 2.562016e-07   -796.90987            0   -796.90987    14264.424 
     870 2.8311006e-07   -796.90987            0   -796.90987    14264.426 
     871 3.111853e-07   -796.90987            0   -796.90987    14264.427 
     872 3.403931e-07   -796.90986            0   -796.90986    14264.429 
     873 3.7069805e-07   -796.90986            0   -796.90986    14264.431 
     874 4.0206284e-07   -796.90986            0   -796.90986    14264.433 
     875 4.3444963e-07   -796.90986            0   -796.90986    14264.435 
     876 4.6781765e-07   -796.90986            0   -796.90986    14264.437 
     877 5.0212811e-07   -796.90986            0   -796.90986    14264.439 
     878 5.373337e-07   -796.90986            0   -796.90986    14264.441 
     879 5.7340318e-07   -796.90986            0   -796.90986    14264.444 
     880 6.1026093e-07   -796.90986            0   -796.90986    14264.446 
     881 6.479465e-07   -796.90985            0   -796.90985    14264.448 
     882 6.8618015e-07   -796.90985            0   -796.90985    14264.451 
     883 7.257215e-07   -796.90985            0   -796.90985    14264.453 
     884 7.6506075e-07   -796.90985            0   -796.90985    14264.457 
     885 8.216343e-07   -796.90985            0   -796.90985    14264.458 
     886 9.7832148e-07   -796.90985            0   -796.90985    14264.466 
     887 1.442754e-06   -796.90985            0   -796.90985    14264.456 
     888 7.6031253e-08   -796.90985            0   -796.90985    14264.459 
     889 7.2834787e-08   -796.90985            0   -796.90985    14264.462 
     890 4.6815693e-08   -796.90985            0   -796.90985    14264.464 
     891 3.5186225e-08   -796.90985            0   -796.90985    14264.465 
     892 4.1353184e-08   -796.90984            0   -796.90984    14264.466 
     893  5.09999e-08   -796.90984            0   -796.90984    14264.466 
     894 6.1682392e-08   -796.90984            0   -796.90984    14264.467 
     895 7.333997e-08   -796.90984            0   -796.90984    14264.468 
     896 8.5962323e-08   -796.90984            0   -796.90984    14264.469 
     897 9.9534192e-08   -796.90984            0   -796.90984     14264.47 
     898 1.1403982e-07   -796.90984            0   -796.90984    14264.471 
     899  1.29462e-07   -796.90984            0   -796.90984    14264.472 
     900 1.4578254e-07   -796.90984            0   -796.90984    14264.473 
     901 1.6298198e-07   -796.90984            0   -796.90984    14264.474 
     902 1.8103988e-07   -796.90984            0   -796.90984    14264.475 
     903 1.9993458e-07   -796.90984            0   -796.90984    14264.477 
     904 2.196435e-07   -796.90984            0   -796.90984    14264.478 
     905 2.4014286e-07   -796.90984            0   -796.90984     14264.48 
     906 2.6140811e-07   -796.90984            0   -796.90984    14264.481 
     907 2.8341332e-07   -796.90984            0   -796.90984    14264.483 
     908 3.0613238e-07   -796.90983            0   -796.90983    14264.485 
     909 3.2953671e-07   -796.90983            0   -796.90983    14264.486 
     910 3.5360012e-07   -796.90983            0   -796.90983    14264.488 
     911 3.7828826e-07   -796.90983            0   -796.90983     14264.49 
     912 4.0358349e-07   -796.90983            0   -796.90983    14264.492 
     913 4.294229e-07   -796.90983            0   -796.90983    14264.494 
     914 4.5586476e-07   -796.90983            0   -796.90983    14264.496 
     915 4.8263251e-07   -796.90983            0   -796.90983    14264.499 
     916 5.1060474e-07   -796.90983            0   -796.90983    14264.501 
     917 5.3859641e-07   -796.90982            0   -796.90982    14264.504 
     918 5.9090811e-07   -796.90982            0   -796.90982    14264.504 
     919 7.7386347e-07   -796.90982            0   -796.90982    14264.512 
     920 5.1194708e-07   -796.90982            0   -796.90982    14264.506 
     921 4.1527017e-08   -796.90982            0   -796.90982    14264.508 
     922 2.645953e-08   -796.90982            0   -796.90982    14264.509 
     923 2.9450379e-08   -796.90982            0   -796.90982     14264.51 
     924 3.6257703e-08   -796.90982            0   -796.90982     14264.51 
     925 4.3825607e-08   -796.90982            0   -796.90982    14264.511 
     926 5.2082216e-08   -796.90982            0   -796.90982    14264.512 
     927 6.1020366e-08   -796.90982            0   -796.90982    14264.512 
     928 7.0629319e-08   -796.90982            0   -796.90982    14264.513 
     929 8.0898071e-08   -796.90982            0   -796.90982    14264.514 
     930 9.1814568e-08   -796.90982            0   -796.90982    14264.515 
     931 1.0336609e-07   -796.90982            0   -796.90982    14264.516 
     932 1.1553902e-07   -796.90982            0   -796.90982    14264.517 
     933 1.2831907e-07   -796.90982            0   -796.90982    14264.518 
     934 1.4169107e-07   -796.90982            0   -796.90982    14264.519 
     935 1.5563928e-07   -796.90981            0   -796.90981    14264.521 
     936 1.7014703e-07   -796.90981            0   -796.90981    14264.522 
     937 1.8519723e-07   -796.90981            0   -796.90981    14264.523 
     938 2.0077164e-07   -796.90981            0   -796.90981    14264.525 
     939 2.1685222e-07   -796.90981            0   -796.90981    14264.526 
     940 2.3341862e-07   -796.90981            0   -796.90981    14264.528 
     941 2.5045342e-07   -796.90981            0   -796.90981    14264.529 
     942 2.6793057e-07   -796.90981            0   -796.90981    14264.531 
     943  2.85843e-07   -796.90981            0   -796.90981    14264.533 
     944 3.0413291e-07   -796.90981            0   -796.90981    14264.535 
     945 3.2288263e-07   -796.90981            0   -796.90981    14264.536 
     946 3.4179456e-07    -796.9098            0    -796.9098    14264.538 
     947 3.6201825e-07    -796.9098            0    -796.9098     14264.54 
     948 3.8325198e-07    -796.9098            0    -796.9098    14264.543 
     949 4.4554635e-07    -796.9098            0    -796.9098    14264.542 
     950 6.1860317e-07    -796.9098            0    -796.9098    14264.551 
     951 7.881632e-08    -796.9098            0    -796.9098    14264.548 
     952 4.4487536e-08    -796.9098            0    -796.9098    14264.547 
     953 2.2436243e-08    -796.9098            0    -796.9098    14264.547 
     954 2.6143576e-08    -796.9098            0    -796.9098    14264.547 
     955 3.1570953e-08    -796.9098            0    -796.9098    14264.548 
     956 3.7496335e-08    -796.9098            0    -796.9098    14264.549 
     957 4.3908266e-08    -796.9098            0    -796.9098    14264.549 
     958 5.0800291e-08    -796.9098            0    -796.9098     14264.55 
     959 5.8164171e-08    -796.9098            0    -796.9098    14264.551 
     960 6.5991614e-08    -796.9098            0    -796.9098    14264.552 
     961 7.4273434e-08    -796.9098            0    -796.9098    14264.552 
     962 8.3000147e-08    -796.9098            0    -796.9098    14264.553 
     963 9.2161477e-08    -796.9098            0    -796.9098    14264.554 
     964 1.0174689e-07    -796.9098            0    -796.9098    14264.555 
     965 1.1174498e-07    -796.9098            0    -796.9098    14264.556 
     966 1.2214432e-07   -796.90979            0   -796.90979    14264.558 
     967 1.3293223e-07   -796.90979            0   -796.90979    14264.559 
     968 1.4409688e-07   -796.90979            0   -796.90979     14264.56 
     969 1.5562348e-07   -796.90979            0   -796.90979    14264.561 
     970 1.675018e-07   -796.90979            0   -796.90979    14264.563 
     971 1.7971034e-07   -796.90979            0   -796.90979    14264.564 
     972 1.9225252e-07   -796.90979            0   -796.90979    14264.565 
     973 2.0506916e-07   -796.90979            0   -796.90979    14264.567 
     974 2.1827043e-07   -796.90979            0   -796.90979    14264.568 
     975 2.3154147e-07   -796.90979            0   -796.90979     14264.57 
     976 2.4629578e-07   -796.90979            0   -796.90979    14264.571 
     977 2.6353101e-07   -796.90979            0   -796.90979    14264.574 
     978 3.3628221e-07   -796.90978            0   -796.90978    14264.573 
     979 5.4386145e-07   -796.90978            0   -796.90978    14264.581 
     980 6.6765571e-08   -796.90978            0   -796.90978    14264.579 
     981 3.7117123e-08   -796.90978            0   -796.90978    14264.577 
     982 1.5980923e-08   -796.90978            0   -796.90978    14264.577 
     983 1.7631882e-08   -796.90978            0   -796.90978    14264.578 
     984 2.1435484e-08   -796.90978            0   -796.90978    14264.578 
     985 2.5620161e-08   -796.90978            0   -796.90978    14264.579 
     986 3.0161493e-08   -796.90978            0   -796.90978    14264.579 
     987 3.5055999e-08   -796.90978            0   -796.90978     14264.58 
     988 4.0297606e-08   -796.90978            0   -796.90978     14264.58 
     989 4.5880632e-08   -796.90978            0   -796.90978    14264.581 
     990 5.1798532e-08   -796.90978            0   -796.90978    14264.582 
     991 5.8044687e-08   -796.90978            0   -796.90978    14264.583 
     992 6.4611786e-08   -796.90978            0   -796.90978    14264.583 
     993 7.149244e-08   -796.90978            0   -796.90978    14264.584 
     994 7.8678502e-08   -796.90978            0   -796.90978    14264.585 
     995 8.6161977e-08   -796.90978            0   -796.90978    14264.586 
     996 9.3933712e-08   -796.90978            0   -796.90978    14264.587 
     997 1.0198554e-07   -796.90978            0   -796.90978    14264.588 
     998 1.1030652e-07   -796.90978            0   -796.90978    14264.589 
     999 1.1889019e-07   -796.90978            0   -796.90978    14264.591 
    1000 1.2771956e-07   -796.90978            0   -796.90978    14264.592 
    1001 1.3680077e-07   -796.90977            0   -796.90977    14264.593 
    1002 1.4608332e-07   -796.90977            0   -796.90977    14264.594 
    1003 1.5566834e-07   -796.90977            0   -796.90977    14264.596 
    1004 1.6529001e-07   -796.90977            0   -796.90977    14264.597 
    1005 1.7621741e-07   -796.90977            0   -796.90977    14264.598 
    1006 1.8977772e-07   -796.90977            0   -796.90977    14264.601 
    1007 2.5201463e-07   -796.90977            0   -796.90977    14264.599 
    1008  3.63023e-07   -796.90977            0   -796.90977    14264.606 
    1009 3.1752812e-08   -796.90977            0   -796.90977    14264.604 
    1010 2.1858223e-08   -796.90977            0   -796.90977    14264.603 
    1011 1.1072676e-08   -796.90977            0   -796.90977    14264.603 
    1012 1.0983823e-08   -796.90977            0   -796.90977    14264.603 
    1013 1.3477344e-08   -796.90977            0   -796.90977    14264.604 
[...]
    2383 9.4123122e-08   -796.93869            0   -796.93869    14203.074 
    2384 1.0300809e-07   -796.93869            0   -796.93869    14203.073 
    2385 1.1220464e-07   -796.93869            0   -796.93869    14203.072 
    2386  1.21697e-07   -796.93869            0   -796.93869    14203.071 
    2387 1.314698e-07   -796.93869            0   -796.93869     14203.07 
    2388 1.415059e-07   -796.93869            0   -796.93869    14203.069 
    2389 1.5178987e-07   -796.93869            0   -796.93869    14203.068 
    2390 1.6230206e-07   -796.93869            0   -796.93869    14203.067 
    2391 1.7302987e-07   -796.93869            0   -796.93869    14203.066 
    2392 1.8394519e-07   -796.93869            0   -796.93869    14203.065 
    2393 1.9505476e-07   -796.93869            0   -796.93869    14203.063 
    2394 2.0629307e-07   -796.93869            0   -796.93869    14203.062 
    2395 2.1787092e-07   -796.93869            0   -796.93869    14203.061 
    2396 2.3012192e-07   -796.93869            0   -796.93869    14203.059 
    2397 2.4992642e-07   -796.93869            0   -796.93869     14203.06 
    2398 2.5589126e-07   -796.93869            0   -796.93869    14203.054 
    2399 4.327419e-08   -796.93869            0   -796.93869    14203.056 
    2400  1.87283e-08   -796.93869            0   -796.93869    14203.057 
    2401 1.7599325e-08   -796.93869            0   -796.93869    14203.056 
    2402 2.0796311e-08   -796.93869            0   -796.93869    14203.056 
    2403 2.4247468e-08   -796.93869            0   -796.93869    14203.055 
    2404 2.7943026e-08   -796.93869            0   -796.93869    14203.055 
    2405 3.1877212e-08   -796.93869            0   -796.93869    14203.055 
    2406 3.6043628e-08   -796.93869            0   -796.93869    14203.054 
    2407 4.0435568e-08   -796.93869            0   -796.93869    14203.054 
    2408 4.5045908e-08   -796.93869            0   -796.93869    14203.053 
    2409 4.9867187e-08   -796.93869            0   -796.93869    14203.052 
    2410 5.4891574e-08   -796.93869            0   -796.93869    14203.052 
    2411 6.0110923e-08    -796.9387            0    -796.9387    14203.051 
    2412 6.5516745e-08    -796.9387            0    -796.9387     14203.05 
    2413 7.1100276e-08    -796.9387            0    -796.9387     14203.05 
    2414 7.685243e-08    -796.9387            0    -796.9387    14203.049 
    2415 8.2763899e-08    -796.9387            0    -796.9387    14203.048 
    2416 8.8825051e-08    -796.9387            0    -796.9387    14203.048 
    2417 9.5026145e-08    -796.9387            0    -796.9387    14203.047 
    2418 1.0135699e-07    -796.9387            0    -796.9387    14203.046 
    2419 1.0780768e-07    -796.9387            0    -796.9387    14203.045 
    2420 1.1436711e-07    -796.9387            0    -796.9387    14203.044 
    2421 1.2102639e-07    -796.9387            0    -796.9387    14203.043 
    2422 1.2777126e-07    -796.9387            0    -796.9387    14203.042 
    2423 1.3460498e-07    -796.9387            0    -796.9387    14203.042 
    2424 1.4152524e-07    -796.9387            0    -796.9387     14203.04 
    2425 1.4899663e-07    -796.9387            0    -796.9387     14203.04 
    2426 1.607261e-07    -796.9387            0    -796.9387    14203.037 
    2427 1.7243524e-07    -796.9387            0    -796.9387    14203.041 
    2428 1.8935829e-08    -796.9387            0    -796.9387    14203.039 
    2429 1.1681337e-08    -796.9387            0    -796.9387    14203.038 
    2430 8.0117213e-09    -796.9387            0    -796.9387    14203.038 
    2431 9.3681786e-09    -796.9387            0    -796.9387    14203.037 
    2432 1.1105102e-08    -796.9387            0    -796.9387    14203.037 
    2433 1.2981298e-08    -796.9387            0    -796.9387    14203.037 
    2434 1.4993371e-08    -796.9387            0    -796.9387    14203.037 
    2435 1.7138171e-08    -796.9387            0    -796.9387    14203.036 
    2436 1.9412352e-08    -796.9387            0    -796.9387    14203.036 
    2437 2.1812352e-08    -796.9387            0    -796.9387    14203.036 
    2438 2.4334405e-08    -796.9387            0    -796.9387    14203.035 
    2439 2.6974549e-08    -796.9387            0    -796.9387    14203.035 
    2440 2.9728631e-08    -796.9387            0    -796.9387    14203.034 
    2441 3.2592313e-08    -796.9387            0    -796.9387    14203.034 
    2442 3.5561086e-08    -796.9387            0    -796.9387    14203.034 
    2443 3.8630271e-08    -796.9387            0    -796.9387    14203.033 
    2444 4.1795034e-08    -796.9387            0    -796.9387    14203.033 
    2445 4.5050388e-08    -796.9387            0    -796.9387    14203.032 
    2446 4.8391211e-08    -796.9387            0    -796.9387    14203.032 
    2447 5.1812243e-08    -796.9387            0    -796.9387    14203.031 
    2448 5.5308118e-08    -796.9387            0    -796.9387    14203.031 
    2449 5.8873333e-08    -796.9387            0    -796.9387     14203.03 
    2450 6.2502328e-08    -796.9387            0    -796.9387     14203.03 
    2451 6.6189386e-08    -796.9387            0    -796.9387    14203.029 
    2452 6.992882e-08    -796.9387            0    -796.9387    14203.028 
    2453 7.3714865e-08    -796.9387            0    -796.9387    14203.028 
    2454 7.7542389e-08    -796.9387            0    -796.9387    14203.027 
    2455 8.1417163e-08    -796.9387            0    -796.9387    14203.027 
    2456 8.5441329e-08    -796.9387            0    -796.9387    14203.026 
    2457 9.1012708e-08    -796.9387            0    -796.9387    14203.025 
    2458 1.0404284e-07    -796.9387            0    -796.9387    14203.027 
    2459 2.6976112e-08    -796.9387            0    -796.9387    14203.025 
    2460 5.6503333e-09    -796.9387            0    -796.9387    14203.025 
    2461 6.5896566e-09    -796.9387            0    -796.9387    14203.024 
    2462 7.6537518e-09    -796.9387            0    -796.9387    14203.024 
    2463 8.7920823e-09    -796.9387            0    -796.9387    14203.024 
    2464 1.0002449e-08    -796.9387            0    -796.9387    14203.024 
    2465 1.1282892e-08    -796.9387            0    -796.9387    14203.024 
    2466 1.2631497e-08    -796.9387            0    -796.9387    14203.023 
    2467 1.4046172e-08    -796.9387            0    -796.9387    14203.023 
    2468 1.5524772e-08    -796.9387            0    -796.9387    14203.023 
    2469 1.706501e-08    -796.9387            0    -796.9387    14203.023 
    2470 1.8664545e-08    -796.9387            0    -796.9387    14203.022 
    2471 2.0320894e-08    -796.9387            0    -796.9387    14203.022 
    2472 2.203155e-08    -796.9387            0    -796.9387    14203.022 
    2473 2.3793829e-08    -796.9387            0    -796.9387    14203.022 
    2474 2.5605122e-08    -796.9387            0    -796.9387    14203.021 
    2475 2.7462474e-08    -796.9387            0    -796.9387    14203.021 
    2476 2.9363384e-08    -796.9387            0    -796.9387    14203.021 
    2477 3.130423e-08    -796.9387            0    -796.9387     14203.02 
    2478 3.3283807e-08    -796.9387            0    -796.9387     14203.02 
    2479 3.5295967e-08    -796.9387            0    -796.9387     14203.02 
    2480 3.7354507e-08    -796.9387            0    -796.9387    14203.019 
    2481 3.9482413e-08    -796.9387            0    -796.9387    14203.019 
    2482 4.2201191e-08    -796.9387            0    -796.9387    14203.018 
    2483 4.6779507e-08    -796.9387            0    -796.9387    14203.019 
    2484 2.702513e-08    -796.9387            0    -796.9387    14203.017 
    2485 4.1569077e-09    -796.9387            0    -796.9387    14203.018 
    2486 2.7497086e-09    -796.9387            0    -796.9387    14203.018 
    2487 3.2221967e-09    -796.9387            0    -796.9387    14203.018 
    2488 3.8095544e-09    -796.9387            0    -796.9387    14203.018 
    2489 4.4431273e-09    -796.9387            0    -796.9387    14203.018 
    2490 5.1219843e-09    -796.9387            0    -796.9387    14203.017 
    2491 5.8451049e-09    -796.9387            0    -796.9387    14203.017 
    2492 6.6114112e-09    -796.9387            0    -796.9387    14203.017 
    2493 7.4197543e-09    -796.9387            0    -796.9387    14203.017 
    2494 8.2689208e-09    -796.9387            0    -796.9387    14203.017 
    2495 9.1576335e-09    -796.9387            0    -796.9387    14203.017 
    2496 1.0084554e-08    -796.9387            0    -796.9387    14203.017 
    2497 1.1048285e-08    -796.9387            0    -796.9387    14203.016 
    2498 1.2047373e-08    -796.9387            0    -796.9387    14203.016 
    2499 1.3080308e-08    -796.9387            0    -796.9387    14203.016 
    2500 1.4145533e-08    -796.9387            0    -796.9387    14203.016 
    2501 1.5241437e-08    -796.9387            0    -796.9387    14203.016 
    2502 1.636637e-08    -796.9387            0    -796.9387    14203.015 
    2503 1.7518627e-08    -796.9387            0    -796.9387    14203.015 
    2504 1.8696484e-08    -796.9387            0    -796.9387    14203.015 
    2505 1.9898141e-08    -796.9387            0    -796.9387    14203.015 
    2506 2.1121846e-08    -796.9387            0    -796.9387    14203.014 
    2507 2.2365623e-08    -796.9387            0    -796.9387    14203.014 
    2508 2.3627974e-08    -796.9387            0    -796.9387    14203.014 
    2509 2.4906038e-08    -796.9387            0    -796.9387    14203.014 
    2510 2.6201329e-08    -796.9387            0    -796.9387    14203.013 
    2511 2.7506997e-08    -796.9387            0    -796.9387    14203.013 
    2512 2.8904529e-08    -796.9387            0    -796.9387    14203.013 
    2513 3.0891558e-08    -796.9387            0    -796.9387    14203.013 
    2514 3.5383594e-08    -796.9387            0    -796.9387    14203.011 
    2515 5.7974505e-09    -796.9387            0    -796.9387    14203.012 
    2516 2.3105621e-09    -796.9387            0    -796.9387    14203.012 
    2517 1.8862511e-09    -796.9387            0    -796.9387    14203.012 
    2518 2.217986e-09    -796.9387            0    -796.9387    14203.012 
    2519 2.5753678e-09    -796.9387            0    -796.9387    14203.012 
    2520 2.9574433e-09    -796.9387            0    -796.9387    14203.012 
    2521 3.3636885e-09    -796.9387            0    -796.9387    14203.012 
    2522 3.7934921e-09    -796.9387            0    -796.9387    14203.012 
    2523 4.2462275e-09    -796.9387            0    -796.9387    14203.012 
    2524 4.7212213e-09    -796.9387            0    -796.9387    14203.012 
    2525 5.2177742e-09    -796.9387            0    -796.9387    14203.012 
    2526 5.7351467e-09    -796.9387            0    -796.9387    14203.011 
    2527 6.272575e-09    -796.9387            0    -796.9387    14203.011 
    2528 6.8292566e-09    -796.9387            0    -796.9387    14203.011 
    2529 7.4043705e-09    -796.9387            0    -796.9387    14203.011 
    2530 7.9970527e-09    -796.9387            0    -796.9387    14203.011 
    2531 8.606437e-09    -796.9387            0    -796.9387    14203.011 
    2532 9.2315922e-09    -796.9387            0    -796.9387    14203.011 
    2533 9.871637e-09    -796.9387            0    -796.9387    14203.011 
    2534 1.0525524e-08    -796.9387            0    -796.9387     14203.01 
    2535 1.1192497e-08    -796.9387            0    -796.9387     14203.01 
    2536 1.1871074e-08    -796.9387            0    -796.9387     14203.01 
    2537 1.2561545e-08    -796.9387            0    -796.9387     14203.01 
    2538 1.3259954e-08    -796.9387            0    -796.9387     14203.01 
    2539 1.397831e-08    -796.9387            0    -796.9387     14203.01 
    2540 1.4722675e-08    -796.9387            0    -796.9387     14203.01 
    2541 1.5916156e-08    -796.9387            0    -796.9387    14203.009 
    2542 1.7568618e-08    -796.9387            0    -796.9387     14203.01 
    2543 3.610296e-09    -796.9387            0    -796.9387    14203.009 
    2544 1.1697845e-09    -796.9387            0    -796.9387    14203.009 
    2545 1.1854703e-09    -796.9387            0    -796.9387    14203.009 
    2546 1.3860544e-09    -796.9387            0    -796.9387    14203.009 
    2547 1.6017472e-09    -796.9387            0    -796.9387    14203.009 
    2548 1.831944e-09    -796.9387            0    -796.9387    14203.009 
    2549 2.0761748e-09    -796.9387            0    -796.9387    14203.009 
    2550 2.3341309e-09    -796.9387            0    -796.9387    14203.009 
    2551 2.6054081e-09    -796.9387            0    -796.9387    14203.009 
    2552 2.8896292e-09    -796.9387            0    -796.9387    14203.009 
    2553 3.1863612e-09    -796.9387            0    -796.9387    14203.009 
    2554 3.495185e-09    -796.9387            0    -796.9387    14203.009 
    2555 3.8156289e-09    -796.9387            0    -796.9387    14203.009 
    2556 4.1472446e-09    -796.9387            0    -796.9387    14203.009 
    2557 4.4895125e-09    -796.9387            0    -796.9387    14203.008 
    2558 4.8419777e-09    -796.9387            0    -796.9387    14203.008 
    2559 5.2040394e-09    -796.9387            0    -796.9387    14203.008 
    2560 5.5753143e-09    -796.9387            0    -796.9387    14203.008 
    2561 5.9549634e-09    -796.9387            0    -796.9387    14203.008 
    2562 6.3430546e-09    -796.9387            0    -796.9387    14203.008 
    2563  6.73766e-09    -796.9387            0    -796.9387    14203.008 
    2564 7.1419221e-09    -796.9387            0    -796.9387    14203.008 
    2565 7.5491664e-09    -796.9387            0    -796.9387    14203.008 
    2566 8.0049282e-09    -796.9387            0    -796.9387    14203.008 
    2567 8.6140429e-09    -796.9387            0    -796.9387    14203.008 
    2568 9.3430306e-09    -796.9387            0    -796.9387    14203.007 
    2569 2.4151297e-09    -796.9387            0    -796.9387    14203.007 
    2570 6.668722e-10    -796.9387            0    -796.9387    14203.007 
    2571 7.7971629e-10    -796.9387            0    -796.9387    14203.007 
    2572 9.0781394e-10    -796.9387            0    -796.9387    14203.007 
    2573 1.0451928e-09    -796.9387            0    -796.9387    14203.007 
    2574 1.1914314e-09    -796.9387            0    -796.9387    14203.007 
    2575 1.3463648e-09    -796.9387            0    -796.9387    14203.007 
    2576 1.5097452e-09    -796.9387            0    -796.9387    14203.007 
    2577  1.68135e-09    -796.9387            0    -796.9387    14203.007 
    2578 1.8609189e-09    -796.9387            0    -796.9387    14203.007 
    2579 2.0482002e-09    -796.9387            0    -796.9387    14203.007 
    2580 2.2429107e-09    -796.9387            0    -796.9387    14203.007 
    2581 2.444778e-09    -796.9387            0    -796.9387    14203.007 
    2582 2.6534918e-09    -796.9387            0    -796.9387    14203.007 
    2583 2.8687692e-09    -796.9387            0    -796.9387    14203.007 
    2584  3.09026e-09    -796.9387            0    -796.9387    14203.007 
    2585 3.3177013e-09    -796.9387            0    -796.9387    14203.007 
    2586 3.5506457e-09    -796.9387            0    -796.9387    14203.007 
    2587 3.788985e-09    -796.9387            0    -796.9387    14203.007 
    2588 4.0318737e-09    -796.9387            0    -796.9387    14203.007 
    2589 4.2801625e-09    -796.9387            0    -796.9387    14203.007 
    2590 4.5309079e-09    -796.9387            0    -796.9387    14203.007 
    2591 4.7938407e-09    -796.9387            0    -796.9387    14203.006 
    2592 5.0691757e-09    -796.9387            0    -796.9387    14203.006 
    2593 5.5681739e-09    -796.9387            0    -796.9387    14203.006 
    2594 5.3780526e-09    -796.9387            0    -796.9387    14203.007 
    2595 7.8881277e-10    -796.9387            0    -796.9387    14203.006 
    2596 3.9674726e-10    -796.9387            0    -796.9387    14203.006 
    2597 3.5550481e-10    -796.9387            0    -796.9387    14203.006 
    2598 4.2270329e-10    -796.9387            0    -796.9387    14203.006 
    2599 4.9699936e-10    -796.9387            0    -796.9387    14203.006 
    2600 5.7693187e-10    -796.9387            0    -796.9387    14203.006 
    2601 6.6239533e-10    -796.9387            0    -796.9387    14203.006 
    2602 7.5326546e-10    -796.9387            0    -796.9387    14203.006 
    2603 8.4941245e-10    -796.9387            0    -796.9387    14203.006 
    2604 9.5069738e-10    -796.9387            0    -796.9387    14203.006 
    2605 1.0569742e-09    -796.9387            0    -796.9387    14203.006 
    2606 1.168089e-09    -796.9387            0    -796.9387    14203.006 
    2607 1.2838808e-09    -796.9387            0    -796.9387    14203.006 
    2608 1.4041812e-09    -796.9387            0    -796.9387    14203.006 
    2609 1.5288158e-09    -796.9387            0    -796.9387    14203.006 
    2610 1.6576027e-09    -796.9387            0    -796.9387    14203.006 
    2611 1.7903551e-09    -796.9387            0    -796.9387    14203.006 
    2612 1.9268785e-09    -796.9387            0    -796.9387    14203.006 
    2613 2.0669757e-09    -796.9387            0    -796.9387    14203.006 
    2614 2.2104396e-09    -796.9387            0    -796.9387    14203.006 
    2615 2.3570667e-09    -796.9387            0    -796.9387    14203.006 
    2616 2.5066313e-09    -796.9387            0    -796.9387    14203.006 
    2617 2.6589438e-09    -796.9387            0    -796.9387    14203.006 
    2618 2.8137122e-09    -796.9387            0    -796.9387    14203.006 
    2619 2.9709014e-09    -796.9387            0    -796.9387    14203.006 
    2620 3.1297685e-09    -796.9387            0    -796.9387    14203.006 
    2621 3.2918694e-09    -796.9387            0    -796.9387    14203.006 
    2622 3.4539538e-09    -796.9387            0    -796.9387    14203.006 
    2623 3.6572865e-09    -796.9387            0    -796.9387    14203.005 
    2624 4.0545519e-09    -796.9387            0    -796.9387    14203.006 
    2625 2.7083962e-09    -796.9387            0    -796.9387    14203.005 
    2626 1.3203919e-10    -796.9387            0    -796.9387    14203.005 
Loop time of 580.077 on 24 procs for 891 steps with 127 atoms

96.2% CPU use with 24 MPI tasks x no OpenMP threads

Minimization stats:
  Stopping criterion = energy tolerance
  Energy initial, next-to-last, final = 
        -796.909675754     -796.938702086     -796.938702083
  Force two-norm initial, final = 1.7381e-06 7.52236e-06
  Force max component initial, final = 1.17093e-06 1.42475e-06
  Final line search alpha, max atom move = 0 0
  Iterations, force evaluations = 891 891

MPI task timing breakdown:
Section |  min time  |  avg time  |  max time  |%varavg| %total
---------------------------------------------------------------
Pair    | 223.16     | 394.1      | 537.39     | 471.1 | 67.94
Neigh   | 0          | 0          | 0          |   0.0 |  0.00
Comm    | 39.743     | 183.04     | 354        | 691.3 | 31.56
Output  | 0.37785    | 0.3938     | 0.3984     |   0.9 |  0.07
Modify  | 1.039      | 1.1161     | 1.1412     |   2.9 |  0.19
Other   |            | 1.427      |            |       |  0.25

Nlocal:    5.29167 ave 7 max 3 min
Histogram: 4 0 0 0 0 9 0 7 0 4
Nghost:    758.125 ave 793 max 714 min
Histogram: 6 2 0 0 0 1 6 1 0 8
Neighs:    0 ave 0 max 0 min
Histogram: 24 0 0 0 0 0 0 0 0 0
FullNghs:  1068.33 ave 1409 max 615 min
Histogram: 4 0 0 0 5 4 0 7 0 4

Total # of neighbors = 25640
Ave neighs/atom = 201.89
Neighbor list builds = 0
Dangerous builds = 0
Total wall time: 0:28:56
