LAMMPS (12 Dec 2018)
Processor partition = 5
Reading data file ...
  orthogonal box = (0 0 0) to (10.0025 12.3537 10.615)
  2 by 4 by 3 MPI processor grid
  reading atoms ...
  127 atoms
Reading potential file lammps-force.nnp with DATE: 20201105
Reading potential file lammps_rot.nnp with DATE: 20211226
Neighbor list info ...
  update every 1 steps, delay 0 steps, check yes
  max neighbors/atom: 2000, page size: 100000
  master list distance cutoff = 8
  ghost atom cutoff = 8
  binsize = 4, bins = 3 4 3
  2 neighbor lists, perpetual/occasional/extra = 2 0 0
  (1) pair nnp3v, perpetual
      attributes: full, newton on
      pair build: full/bin/atomonly
      stencil: full/bin/3d
      bin: standard
  (2) pair nnp3v_vf, perpetual, copy from (1)
      attributes: full, newton on
      pair build: copy
      stencil: none
      bin: none
Setting up quickmin style minimization ...
  Unit style    : metal
  Current step  : 0
Per MPI rank memory allocation (min/avg/max) = 3.111 | 3.226 | 3.362 Mbytes
Step Temp E_pair E_mol TotEng Press 
       0            0   -796.79482            0   -796.79482    13324.103 
      24   0.66844098   -796.99042            0   -796.97954    13893.519 
Loop time of 14.7159 on 24 procs for 24 steps with 127 atoms

98.2% CPU use with 24 MPI tasks x no OpenMP threads

Minimization stats:
  Stopping criterion = energy tolerance
  Energy initial, next-to-last, final = 
        -796.794816724     -796.990398619     -796.990424995
  Force two-norm initial, final = 1.98977 0.177561
  Force max component initial, final = 0.330078 0.036579
  Final line search alpha, max atom move = 0 0
  Iterations, force evaluations = 24 24

MPI task timing breakdown:
Section |  min time  |  avg time  |  max time  |%varavg| %total
---------------------------------------------------------------
Pair    | 6.0827     | 10.771     | 14.705     |  77.6 | 73.19
Neigh   | 0          | 0          | 0          |   0.0 |  0.00
Comm    | 0.0091972  | 3.9375     | 8.6246     | 128.3 | 26.76
Output  | 0          | 0          | 0          |   0.0 |  0.00
Modify  | 0          | 0          | 0          |   0.0 |  0.00
Other   |            | 0.007764   |            |       |  0.05

Nlocal:    5.29167 ave 7 max 3 min
Histogram: 4 0 0 0 0 9 0 7 0 4
Nghost:    759.125 ave 797 max 714 min
Histogram: 7 1 0 0 0 2 6 0 0 8
Neighs:    0 ave 0 max 0 min
Histogram: 24 0 0 0 0 0 0 0 0 0
FullNghs:  1068 ave 1413 max 614 min
Histogram: 4 0 0 0 5 4 0 7 0 4

Total # of neighbors = 25632
Ave neighs/atom = 201.827
Neighbor list builds = 0
Dangerous builds = 0
Setting up quickmin style minimization ...
  Unit style    : metal
  Current step  : 0
Per MPI rank memory allocation (min/avg/max) = 5.112 | 5.226 | 5.362 Mbytes
Step Temp E_pair E_mol TotEng Press 
       0            0   -795.43176            0   -795.43176    14117.598 
       1    1.8320265   -795.43176            0   -795.40192    14141.896 
       2    8.4689539   -795.49389            0   -795.35596    14253.554 
       3    20.524977   -795.61085            0   -795.27656    14480.017 
       4    37.306358    -795.7647            0    -795.1571    14841.027 
       5    55.967771   -795.92866            0   -795.01713    15309.757 
       6    70.468556    -796.0761            0    -794.9284    15744.397 
       7    75.048836   -796.19479            0   -794.97249    15902.524 
       8    73.206442   -796.28843            0   -795.09613    15711.151 
       9    73.603269   -796.36324            0   -795.16448      15450.2 
      10    75.781057   -796.42244            0   -795.18821    15332.748 
      11     79.20624    -796.4702            0   -795.18019    15378.876 
      12    81.920723     -796.504            0   -795.16977     15310.41 
      13    40.577702    -796.5193            0   -795.85842    15021.674 
      14  0.022688219    -796.5193            0   -796.51893    14483.811 
      15  0.090655905   -796.51988            0    -796.5184    14475.821 
      16   0.20614374   -796.52098            0   -796.51762    14459.886 
      17   0.36037835   -796.52247            0    -796.5166    14436.985 
      18   0.53876402   -796.52419            0   -796.51542    14408.986 
      19   0.71764334   -796.52604            0   -796.51436    14379.143 
      20   0.85604377   -796.52806            0   -796.51412    14352.934 
      21   0.93283329    -796.5304            0   -796.51521    14336.986 
      22    1.0484238   -796.53316            0   -796.51608    14332.615 
      23    1.2422302   -796.53626            0   -796.51603    14334.839 
      24    1.4697068   -796.53963            0   -796.51569    14339.306 
      25    1.7129935   -796.54321            0   -796.51531    14344.401 
      26    1.9676971   -796.54696            0   -796.51492    14349.807 
      27    2.2314513   -796.55086            0   -796.51452    14355.484 
      28    2.5021009   -796.55487            0   -796.51412    14361.415 
      29      2.77746   -796.55897            0   -796.51373    14367.567 
      30     3.055325   -796.56314            0   -796.51337    14373.899 
      31    3.3334941   -796.56734            0   -796.51305    14380.361 
      32     3.609797   -796.57156            0   -796.51277    14386.911 
      33    3.8821019   -796.57578            0   -796.51255    14393.489 
      34    4.1483545   -796.57997            0   -796.51241    14400.048 
      35    4.4065852    -796.5841            0   -796.51233    14406.561 
      36    4.6549174   -796.58818            0   -796.51236    14412.979 
      37    4.8915586   -796.59219            0   -796.51252    14419.264 
      38    5.1148288   -796.59612            0   -796.51281    14425.378 
      39    5.3232601   -796.59996            0   -796.51326      14431.3 
      40     5.515393    -796.6037            0   -796.51387    14436.991 
      41    5.6902149   -796.60734            0   -796.51466    14442.519 
      42     5.845766   -796.61087            0   -796.51566    14447.623 
      43    5.9845445   -796.61427            0    -796.5168    14453.369 
      44    6.0856052   -796.61747            0   -796.51836    14455.095 
      45    6.1679975   -796.62038            0   -796.51992    14474.218 
      46    3.0740966   -796.62105            0   -796.57098      14404.5 
      47 0.0020179517   -796.62105            0   -796.62102    14363.756 
      48 0.0090959091   -796.62113            0   -796.62098    14364.726 
      49  0.021167796   -796.62129            0   -796.62094    14366.647 
      50  0.036535517    -796.6215            0   -796.62091     14369.46 
      51  0.052111454   -796.62175            0    -796.6209     14372.98 
      52  0.063276841   -796.62202            0   -796.62098    14376.759 
      53  0.066849159   -796.62229            0    -796.6212    14380.025 
      54  0.069511669   -796.62258            0   -796.62145    14382.218 
      55  0.080055216    -796.6229            0   -796.62159    14383.554 
      56  0.096249903   -796.62324            0   -796.62168    14384.478 
      57   0.11486221   -796.62362            0   -796.62175    14385.281 
      58   0.13500233   -796.62402            0   -796.62183    14386.092 
      59   0.15647197   -796.62446            0   -796.62191    14386.947 
      60   0.17916169   -796.62493            0   -796.62201    14387.857 
      61   0.20296971   -796.62543            0   -796.62212    14388.823 
      62   0.22779074   -796.62595            0   -796.62224    14389.846 
      63   0.25351518    -796.6265            0   -796.62237    14390.928 
      64   0.28002978   -796.62707            0   -796.62251    14392.067 
      65   0.30721824   -796.62767            0   -796.62267    14393.262 
      66   0.33496225   -796.62829            0   -796.62284    14394.511 
      67   0.36314191   -796.62894            0   -796.62302    14395.814 
      68   0.39163563    -796.6296            0   -796.62322     14397.17 
      69   0.42032159   -796.63028            0   -796.62344    14398.579 
      70   0.44907868   -796.63098            0   -796.62367    14400.038 
      71   0.47778699    -796.6317            0   -796.62391    14401.547 
      72   0.50632919   -796.63243            0   -796.62418    14403.104 
      73   0.53458885   -796.63318            0   -796.62447    14404.709 
      74   0.56245309   -796.63394            0   -796.62478    14406.361 
      75   0.58981424   -796.63472            0   -796.62511    14408.053 
      76   0.61656305    -796.6355            0   -796.62546    14409.787 
      77   0.64260997    -796.6363            0   -796.62583    14411.559 
      78   0.66784015   -796.63711            0   -796.62623    14413.348 
      79   0.69223712   -796.63792            0   -796.62665    14415.183 
      80   0.71553023   -796.63875            0   -796.62709     14417.01 
      81   0.73819204   -796.63958            0   -796.62756    14418.998 
      82   0.75786586   -796.64043            0   -796.62808    14420.529 
      83   0.77707581   -796.64124            0   -796.62858    14423.824 
      84   0.68589989   -796.64202            0   -796.63085     14419.17 
      85  0.081673368   -796.64213            0    -796.6408    14414.516 
      86  0.038147425   -796.64229            0   -796.64167    14414.988 
      87  0.040151096   -796.64248            0   -796.64183    14415.315 
      88  0.045513957   -796.64268            0   -796.64194    14415.804 
      89  0.051116007   -796.64289            0   -796.64206    14416.289 
      90  0.056993896   -796.64311            0   -796.64218    14416.813 
      91  0.063085269   -796.64335            0   -796.64232    14417.356 
      92  0.069391667   -796.64359            0   -796.64246     14417.93 
      93  0.075880539   -796.64385            0   -796.64262    14418.527 
      94  0.082542915   -796.64412            0   -796.64278    14419.152 
      95  0.089349481    -796.6444            0   -796.64295    14419.798 
      96  0.096290599    -796.6447            0   -796.64313    14420.471 
      97   0.10333409     -796.645            0   -796.64332    14421.163 
      98   0.11047664   -796.64532            0   -796.64352    14421.882 
      99   0.11767396   -796.64564            0   -796.64373    14422.613 
     100   0.12494672   -796.64598            0   -796.64394    14423.379 
     101   0.13220369   -796.64632            0   -796.64417    14424.131 
     102   0.13956247   -796.64668            0    -796.6444    14424.958 
     103   0.14669393   -796.64704            0   -796.64465    14425.667 
     104   0.15416622   -796.64741            0    -796.6449    14426.688 
     105   0.15982559   -796.64779            0   -796.64519    14426.964 
     106    0.1643278   -796.64815            0   -796.64547    14429.073 
     107   0.13283209   -796.64846            0    -796.6463    14426.457 
     108  0.034508931   -796.64856            0     -796.648    14427.215 
     109  0.014499244   -796.64867            0   -796.64843    14427.049 
     110  0.016684427   -796.64879            0   -796.64852    14427.317 
     111   0.01903661   -796.64892            0   -796.64861    14427.584 
     112  0.021528744   -796.64905            0    -796.6487    14427.871 
     113  0.024144383    -796.6492            0   -796.64881    14428.173 
     114  0.026880155   -796.64936            0   -796.64892    14428.493 
     115  0.029728317   -796.64952            0   -796.64904    14428.827 
     116   0.03268296   -796.64969            0   -796.64916    14429.178 
     117  0.035736775   -796.64987            0   -796.64929    14429.542 
     118  0.038883329   -796.65007            0   -796.64943    14429.921 
     119  0.042115189   -796.65026            0   -796.64958    14430.315 
     120  0.045425734   -796.65047            0   -796.64973    14430.722 
     121   0.04880739   -796.65069            0   -796.64989    14431.142 
     122  0.052253851   -796.65091            0   -796.65006    14431.575 
     123  0.055757039   -796.65115            0   -796.65024    14432.019 
     124  0.059311899   -796.65139            0   -796.65042    14432.476 
     125  0.062908507   -796.65164            0   -796.65061    14432.939 
     126  0.066546703    -796.6519            0   -796.65081    14433.415 
     127   0.07020704   -796.65216            0   -796.65102    14433.893 
     128  0.073912168   -796.65244            0   -796.65123    14434.398 
     129  0.077586184   -796.65272            0   -796.65146    14434.869 
     130   0.08139788   -796.65301            0   -796.65169    14435.455 
     131  0.084831029   -796.65331            0   -796.65193    14435.755 
     132  0.089082718   -796.65361            0   -796.65216    14436.895 
     133  0.087626498    -796.6539            0   -796.65248    14435.593 
     134  0.049567077   -796.65402            0   -796.65322    14437.647 
     135 0.0049577427   -796.65408            0     -796.654    14436.431 
     136 0.0040321111   -796.65414            0   -796.65407    14436.179 
     137 0.0043529784   -796.65421            0   -796.65414      14436.2 
     138 0.0051725528   -796.65428            0   -796.65419    14436.308 
     139 0.0060823296   -796.65436            0   -796.65426    14436.435 
     140 0.0070582576   -796.65444            0   -796.65433    14436.571 
     141 0.0081001244   -796.65453            0    -796.6544    14436.718 
     142 0.0092061853   -796.65463            0   -796.65448    14436.874 
     143  0.010374508   -796.65473            0   -796.65457     14437.04 
     144  0.011603083   -796.65485            0   -796.65466    14437.214 
     145  0.012889814   -796.65496            0   -796.65475    14437.399 
     146  0.014232534   -796.65509            0   -796.65486    14437.592 
     147  0.015629009   -796.65522            0   -796.65496    14437.794 
     148  0.017076952   -796.65536            0   -796.65508    14438.004 
     149   0.01857403    -796.6555            0    -796.6552    14438.223 
     150  0.020117872   -796.65565            0   -796.65532     14438.45 
     151  0.021706073   -796.65581            0   -796.65545    14438.685 
     152  0.023336222   -796.65597            0   -796.65559    14438.926 
     153  0.025005915   -796.65614            0   -796.65573    14439.175 
     154  0.026712726   -796.65632            0   -796.65588    14439.431 
     155  0.028454253    -796.6565            0   -796.65604    14439.693 
     156  0.030228117   -796.65669            0    -796.6562    14439.962 
     157  0.032031964   -796.65689            0   -796.65637    14440.238 
     158   0.03386346   -796.65709            0   -796.65654     14440.52 
     159  0.035720336    -796.6573            0   -796.65672    14440.806 
     160   0.03760033   -796.65751            0    -796.6569    14441.098 
     161  0.039501268   -796.65774            0   -796.65709    14441.396 
     162  0.041421343   -796.65796            0   -796.65729    14441.698 
     163  0.043357473    -796.6582            0   -796.65749    14442.004 
     164  0.045311383   -796.65844            0    -796.6577    14442.317 
     165  0.047267263   -796.65869            0   -796.65792    14442.626 
     166  0.049268943   -796.65894            0   -796.65814    14442.967 
     167  0.051080086    -796.6592            0   -796.65837    14443.205 
     168  0.052920019   -796.65945            0   -796.65859    14443.843 
     169  0.042864115   -796.65964            0   -796.65895    14443.007 
     170 0.0015766775   -796.65966            0   -796.65964    14442.701 
     171 0.0017364851   -796.65968            0   -796.65966    14442.945 
     172 0.0016092715   -796.65972            0   -796.65969    14443.125 
     173 0.0015798791   -796.65976            0   -796.65973    14443.225 
     174 0.0018356532    -796.6598            0   -796.65977    14443.291 
     175  0.002188517   -796.65985            0   -796.65982    14443.353 
     176 0.0025787457   -796.65991            0   -796.65987     14443.42 
     177  0.002999744   -796.65997            0   -796.65992    14443.492 
     178 0.0034505696   -796.66004            0   -796.65998    14443.569 
     179 0.0039306748   -796.66011            0   -796.66004    14443.652 
     180 0.0044394666   -796.66018            0   -796.66011     14443.74 
     181 0.0049763107   -796.66026            0   -796.66018    14443.833 
     182 0.0055405415   -796.66035            0   -796.66026    14443.931 
     183 0.0061314677   -796.66044            0   -796.66034    14444.034 
     184 0.0067483692   -796.66053            0   -796.66042    14444.142 
     185 0.0073904988   -796.66063            0   -796.66051    14444.255 
     186 0.0080570858   -796.66073            0    -796.6606    14444.373 
     187 0.0087473377   -796.66084            0    -796.6607    14444.495 
     188 0.0094604431   -796.66095            0    -796.6608    14444.622 
     189  0.010195569   -796.66107            0    -796.6609    14444.754 
     190  0.010951869   -796.66119            0   -796.66101     14444.89 
     191   0.01172848   -796.66132            0   -796.66113     14445.03 
     192   0.01252453   -796.66145            0   -796.66124    14445.174 
     193  0.013339132   -796.66158            0   -796.66137    14445.323 
     194  0.014171392   -796.66172            0   -796.66149    14445.476 
     195  0.015020403   -796.66187            0   -796.66162    14445.632 
     196  0.015885264   -796.66202            0   -796.66176    14445.792 
     197  0.016765129   -796.66217            0    -796.6619    14445.956 
     198  0.017659109   -796.66233            0   -796.66204    14446.124 
     199   0.01856611   -796.66249            0   -796.66219    14446.294 
     200  0.019485612   -796.66266            0   -796.66234    14446.469 
     201  0.020415379   -796.66283            0    -796.6625    14446.645 
     202  0.021358514     -796.663            0   -796.66266    14446.832 
     203  0.022299188   -796.66318            0   -796.66282    14446.994 
     204  0.023274998   -796.66337            0   -796.66299    14447.254 
     205  0.023970267   -796.66355            0   -796.66316    14447.173 
     206   0.02333846   -796.66373            0   -796.66335    14448.242 
     207 0.0080536701   -796.66379            0   -796.66366    14446.858 
     208 0.00042115445   -796.66381            0    -796.6638    14446.989 
     209 0.0004874928   -796.66383            0   -796.66382    14447.181 
     210 0.00056340736   -796.66386            0   -796.66385    14447.301 
     211 0.00068265017   -796.66389            0   -796.66387    14447.368 
     212 0.00083391451   -796.66392            0    -796.6639     14447.41 
     213 0.0010047459   -796.66395            0   -796.66394    14447.448 
     214 0.0011917393   -796.66399            0   -796.66397    14447.487 
     215 0.0013941462   -796.66404            0   -796.66401    14447.529 
     216  0.001611662   -796.66408            0   -796.66406    14447.574 
     217   0.00184405   -796.66413            0    -796.6641    14447.623 
     218 0.0020910627   -796.66419            0   -796.66415    14447.675 
     219  0.002352436   -796.66424            0    -796.6642     14447.73 
     220 0.0026278903    -796.6643            0   -796.66426    14447.789 
     221 0.0029171312   -796.66437            0   -796.66432     14447.85 
     222 0.0032198495   -796.66443            0   -796.66438    14447.915 
     223 0.0035357219    -796.6645            0   -796.66445    14447.983 
     224 0.0038644116   -796.66458            0   -796.66452    14448.054 
     225 0.0042055687   -796.66466            0   -796.66459    14448.128 
     226 0.0045588304   -796.66474            0   -796.66466    14448.205 
     227 0.0049238221   -796.66482            0   -796.66474    14448.284 
     228 0.0053001573   -796.66491            0   -796.66482    14448.367 
     229 0.0056874383     -796.665            0   -796.66491    14448.453 
     230 0.0060852577   -796.66509            0   -796.66499    14448.541 
     231 0.0064931962   -796.66519            0   -796.66508    14448.632 
     232 0.0069108196   -796.66529            0   -796.66518    14448.726 
     233 0.0073376917   -796.66539            0   -796.66527    14448.822 
     234  0.007773368    -796.6655            0   -796.66537    14448.921 
     235 0.0082173902   -796.66561            0   -796.66548    14449.022 
     236 0.0086693067   -796.66572            0   -796.66558    14449.126 
     237 0.0091286344   -796.66584            0   -796.66569    14449.232 
     238 0.0095949328   -796.66596            0    -796.6658    14449.341 
     239  0.010067615   -796.66608            0   -796.66592    14449.451 
     240  0.010546501    -796.6662            0   -796.66603    14449.565 
     241  0.011030099   -796.66633            0   -796.66615    14449.679 
     242  0.011521073   -796.66646            0   -796.66628      14449.8 
     243  0.012006088    -796.6666            0    -796.6664    14449.905 
     244  0.012511528   -796.66673            0   -796.66653    14450.076 
     245  0.012673961   -796.66687            0   -796.66666    14450.004 
     246  0.010602961   -796.66698            0   -796.66681     14450.66 
     247 0.0008513515     -796.667            0   -796.66699    14450.248 
     248 0.00067145011   -796.66703            0   -796.66702    14450.126 
     249 0.00066263075   -796.66706            0   -796.66705    14450.148 
     250 0.00077180389   -796.66709            0   -796.66708    14450.177 
     251 0.00088871104   -796.66712            0   -796.66711    14450.207 
     252 0.0010134354   -796.66716            0   -796.66715    14450.239 
     253 0.0011457994    -796.6672            0   -796.66718    14450.274 
     254 0.0012856825   -796.66724            0   -796.66722     14450.31 
     255 0.0014329346   -796.66729            0   -796.66727    14450.349 
     256 0.0015874069   -796.66734            0   -796.66731     14450.39 
     257 0.0017489377   -796.66739            0   -796.66736    14450.433 
     258 0.0019173628   -796.66744            0   -796.66741    14450.478 
     259 0.0020925055   -796.66749            0   -796.66746    14450.525 
     260 0.0022741848   -796.66755            0   -796.66751    14450.573 
     261 0.0024622099   -796.66761            0   -796.66757    14450.624 
     262 0.0026563849   -796.66767            0   -796.66763    14450.676 
     263 0.0028565055   -796.66774            0   -796.66769    14450.731 
     264 0.0030623682    -796.6678            0   -796.66775    14450.787 
     265 0.0032737487   -796.66787            0   -796.66782    14450.845 
     266 0.0034904417   -796.66794            0   -796.66789    14450.905 
     267 0.0037121897   -796.66802            0   -796.66796    14450.966 
     268  0.003938822   -796.66809            0   -796.66803     14451.03 
     269 0.0041699656   -796.66817            0    -796.6681    14451.094 
     270 0.0044056885   -796.66825            0   -796.66818    14451.161 
     271 0.0046449766   -796.66833            0   -796.66826    14451.228 
     272 0.0048895555   -796.66842            0   -796.66834    14451.302 
     273 0.0051336961   -796.66851            0   -796.66842    14451.364 
     274 0.0053926313    -796.6686            0   -796.66851    14451.464 
     275 0.0056175878   -796.66869            0    -796.6686    14451.453 
     276 0.0059467739   -796.66877            0   -796.66868    14451.793 
     277 0.0054219062   -796.66885            0   -796.66876    14451.185 
     278 0.00093465448   -796.66887            0   -796.66885    14451.496 
     279 0.00042506305   -796.66889            0   -796.66888    14451.606 
     280 0.00042884403   -796.66891            0    -796.6689    14451.621 
     281 0.00049739124   -796.66894            0   -796.66893    14451.642 
     282 0.00057048729   -796.66896            0   -796.66895    14451.664 
     283 0.00064836216   -796.66899            0   -796.66898    14451.688 
     284 0.00073085599   -796.66903            0   -796.66901    14451.714 
     285 0.00081791097   -796.66906            0   -796.66905    14451.741 
     286 0.00090942486    -796.6691            0   -796.66908    14451.769 
     287 0.0010053109   -796.66913            0   -796.66912    14451.799 
     288 0.0011054643   -796.66917            0   -796.66915    14451.831 
     289 0.0012097859   -796.66921            0   -796.66919    14451.864 
     290 0.0013181628   -796.66926            0   -796.66924    14451.898 
     291 0.0014304869    -796.6693            0   -796.66928    14451.934 
     292  0.001546635   -796.66935            0   -796.66932    14451.971 
     293 0.0016664938    -796.6694            0   -796.66937     14452.01 
     294 0.0017899258   -796.66945            0   -796.66942     14452.05 
     295 0.0019168196    -796.6695            0   -796.66947    14452.091 
     296   0.00204701   -796.66956            0   -796.66952    14452.134 
     297 0.0021804177   -796.66961            0   -796.66958    14452.178 
     298 0.0023167875   -796.66967            0   -796.66963    14452.223 
     299  0.002456214   -796.66973            0   -796.66969     14452.27 
     300 0.0025980165   -796.66979            0   -796.66975    14452.317 
     301 0.0027433076   -796.66985            0   -796.66981    14452.368 
     302 0.0028888025   -796.66992            0   -796.66987    14452.412 
     303 0.0030428964   -796.66999            0   -796.66994    14452.482 
     304 0.0031842395   -796.67006            0      -796.67    14452.481 
     305 0.0033978766   -796.67012            0   -796.67007    14452.691 
     306 0.0035545575   -796.67019            0   -796.67013    14452.316 
     307 0.0021180955   -796.67021            0   -796.67018     14452.84 
     308 0.00026172424   -796.67023            0   -796.67022    14452.666 
     309 0.00018335036   -796.67024            0   -796.67024    14452.625 
     310 0.00020663498   -796.67026            0   -796.67026    14452.631 
     311 0.00024476396   -796.67028            0   -796.67027    14452.644 
     312 0.00028598276    -796.6703            0   -796.67029    14452.659 
     313 0.00033024679   -796.67032            0   -796.67031    14452.675 
     314 0.0003775226   -796.67034            0   -796.67033    14452.692 
     315 0.00042776041   -796.67036            0   -796.67036    14452.711 
     316 0.00048090895   -796.67039            0   -796.67038     14452.73 
     317 0.00053691325   -796.67042            0   -796.67041    14452.751 
     318 0.00059571543   -796.67045            0   -796.67044    14452.772 
     319 0.00065725439   -796.67048            0   -796.67047    14452.795 
     320 0.00072146611   -796.67051            0    -796.6705    14452.819 
     321 0.00078828352   -796.67054            0   -796.67053    14452.844 
     322 0.00085763673   -796.67058            0   -796.67056     14452.87 
     323 0.00092945293   -796.67061            0    -796.6706    14452.898 
     324 0.0010036566   -796.67065            0   -796.67063    14452.926 
     325 0.0010801696   -796.67069            0   -796.67067    14452.955 
     326 0.0011589109   -796.67073            0   -796.67071    14452.985 
     327 0.0012397971   -796.67077            0   -796.67075    14453.017 
     328 0.0013227426   -796.67082            0    -796.6708    14453.049 
     329 0.0014076585   -796.67086            0   -796.67084    14453.082 
     330 0.0014944554   -796.67091            0   -796.67088    14453.117 
     331 0.0015830379   -796.67096            0   -796.67093    14453.152 
     332  0.001673317   -796.67101            0   -796.67098    14453.188 
     333 0.0017651812   -796.67106            0   -796.67103    14453.225 
     334 0.0018585684   -796.67111            0   -796.67108    14453.263 
     335 0.0019532776   -796.67116            0   -796.67113    14453.302 
     336 0.0020494917   -796.67122            0   -796.67118    14453.343 
     337 0.0021462578   -796.67127            0   -796.67124    14453.381 
     338 0.0022462132   -796.67133            0   -796.67129     14453.43 
     339 0.0023410899   -796.67139            0   -796.67135    14453.445 
     340 0.0024700926   -796.67145            0   -796.67141    14453.584 
     341 0.0026029858   -796.67151            0   -796.67146    14453.306 
     342 0.0016399086   -796.67153            0    -796.6715    14453.777 
     343 6.4172785e-05   -796.67153            0   -796.67153    14453.676 
     344 6.5783494e-05   -796.67154            0   -796.67154     14453.61 
     345 6.4297741e-05   -796.67155            0   -796.67155    14453.572 
     346 7.2397529e-05   -796.67156            0   -796.67156     14453.56 
     347 8.8295234e-05   -796.67157            0   -796.67157    14453.562 
     348 0.0001073378   -796.67158            0   -796.67158    14453.569 
     349 0.00012825923   -796.67159            0   -796.67159    14453.578 
     350 0.00015095277   -796.67161            0    -796.6716    14453.588 
     351 0.00017541203   -796.67162            0   -796.67162    14453.599 
     352 0.00020161488   -796.67164            0   -796.67164    14453.611 
     353 0.00022953425   -796.67166            0   -796.67165    14453.623 
     354 0.00025914134   -796.67168            0   -796.67167    14453.637 
     355 0.00029040544    -796.6717            0   -796.67169    14453.651 
     356 0.00032329405   -796.67172            0   -796.67171    14453.666 
     357 0.00035777282   -796.67174            0   -796.67173    14453.682 
     358 0.00039380566   -796.67176            0   -796.67176    14453.698 
     359 0.00043135478   -796.67179            0   -796.67178    14453.716 
     360 0.00047038064   -796.67181            0   -796.67181    14453.734 
     361 0.00051084201   -796.67184            0   -796.67183    14453.753 
     362 0.00055269609   -796.67187            0   -796.67186    14453.773 
     363 0.00059589846    -796.6719            0   -796.67189    14453.793 
     364 0.00064040318   -796.67193            0   -796.67192    14453.814 
     365 0.00068616288   -796.67196            0   -796.67195    14453.836 
     366 0.00073312857   -796.67199            0   -796.67198    14453.859 
     367 0.00078124991   -796.67203            0   -796.67201    14453.882 
     368 0.00083047525   -796.67206            0   -796.67205    14453.907 
     369 0.00088075143    -796.6721            0   -796.67208    14453.931 
     370 0.00093202376   -796.67213            0   -796.67212    14453.957 
     371 0.00098423681   -796.67217            0   -796.67216    14453.983 
     372  0.001037335   -796.67221            0   -796.67219     14454.01 
     373 0.0010912576   -796.67225            0   -796.67223    14454.037 
     374 0.0011459537   -796.67229            0   -796.67227    14454.065 
     375 0.0012013397   -796.67233            0   -796.67232    14454.094 
     376 0.0012574238   -796.67238            0   -796.67236    14454.123 
     377 0.0013138855   -796.67242            0    -796.6724    14454.152 
     378 0.0013711679   -796.67247            0   -796.67245    14454.186 
     379 0.0014232083   -796.67251            0   -796.67249    14454.205 
     380 0.0014402981   -796.67256            0   -796.67254    14454.282 
     381 0.0010085872    -796.6726            0   -796.67258    14454.161 
     382 7.0121196e-05   -796.67261            0    -796.6726    14454.229 
     383 7.9191115e-05   -796.67262            0   -796.67261    14454.264 
     384 8.781041e-05   -796.67263            0   -796.67262     14454.27 
     385 0.00010201458   -796.67264            0   -796.67264    14454.278 
     386 0.00011719189   -796.67265            0   -796.67265    14454.286 
     387 0.00013336919   -796.67266            0   -796.67266    14454.295 
     388 0.0001505173   -796.67268            0   -796.67268    14454.305 
     389 0.00016862281   -796.67269            0   -796.67269    14454.315 
     390 0.00018766452   -796.67271            0   -796.67271    14454.326 
     391 0.00020762383   -796.67273            0   -796.67273    14454.337 
     392 0.00022847865   -796.67275            0   -796.67274    14454.349 
     393 0.00025020789   -796.67277            0   -796.67276    14454.362 
     394 0.00027278756   -796.67279            0   -796.67278    14454.375 
     395 0.00029619475   -796.67281            0    -796.6728    14454.389 
     396 0.00032040317   -796.67283            0   -796.67282    14454.403 
     397 0.00034538881   -796.67285            0   -796.67285    14454.418 
     398 0.00037112213   -796.67287            0   -796.67287    14454.433 
     399 0.00039758003    -796.6729            0   -796.67289    14454.449 
     400 0.00042472609   -796.67292            0   -796.67292    14454.466 
     401 0.00045254593   -796.67295            0   -796.67294    14454.483 
     402 0.00048097938   -796.67298            0   -796.67297      14454.5 
     403 0.00051005992   -796.67301            0     -796.673    14454.519 
     404 0.00053960867   -796.67303            0   -796.67303    14454.536 
     405 0.00056994474   -796.67306            0   -796.67305    14454.557 
     406 0.00060011105   -796.67309            0   -796.67308    14454.572 
     407 0.00063238179   -796.67312            0   -796.67311    14454.605 
     408 0.00065889229   -796.67316            0   -796.67315    14454.587 
     409 0.00068927041   -796.67319            0   -796.67318    14454.716 
     410 0.0005309194   -796.67321            0    -796.6732    14454.514 
     411 7.1013214e-05   -796.67321            0   -796.67321    14454.601 
     412 4.6615139e-05   -796.67322            0   -796.67322    14454.644 
     413 4.6018373e-05   -796.67323            0   -796.67323    14454.653 
     414 5.4264022e-05   -796.67324            0   -796.67324    14454.659 
     415 6.3372487e-05   -796.67325            0   -796.67325    14454.665 
     416 7.3152543e-05   -796.67326            0   -796.67326    14454.671 
     417 8.3595262e-05   -796.67327            0   -796.67327    14454.678 
     418 9.468956e-05   -796.67328            0   -796.67328    14454.686 
     419 0.00010642391   -796.67329            0   -796.67329    14454.694 
     420 0.00011878596   -796.67331            0    -796.6733    14454.702 
     421 0.00013176272   -796.67332            0   -796.67332    14454.711 
     422 0.00014534047   -796.67334            0   -796.67333    14454.721 
     423 0.00015950482   -796.67335            0   -796.67335     14454.73 
     424 0.00017424071   -796.67337            0   -796.67336    14454.741 
     425 0.00018953245   -796.67338            0   -796.67338    14454.751 
     426 0.00020536367    -796.6734            0    -796.6734    14454.762 
     427 0.00022171743   -796.67342            0   -796.67342    14454.774 
     428 0.00023857612   -796.67344            0   -796.67344    14454.786 
     429 0.00025592162   -796.67346            0   -796.67346    14454.799 
     430 0.00027373511   -796.67348            0   -796.67348    14454.812 
     431 0.00029199744    -796.6735            0    -796.6735    14454.825 
     432 0.00031068848   -796.67352            0   -796.67352    14454.839 
     433 0.00032978849   -796.67355            0   -796.67354    14454.853 
     434 0.00034927519   -796.67357            0   -796.67356    14454.868 
     435 0.00036913059   -796.67359            0   -796.67359    14454.883 
     436 0.00038932442   -796.67362            0   -796.67361    14454.898 
     437 0.00040985686   -796.67364            0   -796.67364    14454.914 
     438 0.00043064182   -796.67367            0   -796.67366     14454.93 
     439 0.00045184075    -796.6737            0   -796.67369    14454.948 
     440 0.00047283253   -796.67373            0   -796.67372    14454.961 
     441 0.00049528898   -796.67375            0   -796.67375    14454.992 
     442 0.0005106963   -796.67378            0   -796.67377    14454.963 
     443 0.00050509683   -796.67381            0    -796.6738    14455.119 
     444 0.00014138217   -796.67382            0   -796.67381    14454.985 
     445 2.7389791e-05   -796.67382            0   -796.67382    14455.013 
     446 2.8183272e-05   -796.67383            0   -796.67383    14455.019 
     447 3.330017e-05   -796.67384            0   -796.67383    14455.024 
     448 3.8920204e-05   -796.67384            0   -796.67384    14455.028 
     449 4.4956465e-05   -796.67385            0   -796.67385    14455.033 
     450 5.1403835e-05   -796.67386            0   -796.67386    14455.038 
     451 5.8255361e-05   -796.67387            0   -796.67387    14455.044 
     452 6.5503932e-05   -796.67388            0   -796.67388     14455.05 
     453 7.3141884e-05   -796.67389            0   -796.67389    14455.056 
     454 8.1161168e-05    -796.6739            0    -796.6739    14455.063 
     455 8.9553266e-05   -796.67391            0   -796.67391     14455.07 
     456 9.8309266e-05   -796.67393            0   -796.67392    14455.077 
     457 0.00010741981   -796.67394            0   -796.67394    14455.085 
     458 0.00011687517   -796.67395            0   -796.67395    14455.093 
     459 0.00012666518   -796.67397            0   -796.67397    14455.101 
     460 0.00013677932   -796.67398            0   -796.67398     14455.11 
     461 0.00014720664     -796.674            0     -796.674    14455.119 
     462 0.00015793592   -796.67401            0   -796.67401    14455.129 
     463 0.0001689554   -796.67403            0   -796.67403    14455.139 
     464 0.0001802533   -796.67405            0   -796.67405    14455.149 
     465 0.00019181684   -796.67407            0   -796.67406    14455.159 
     466 0.00020363431   -796.67409            0   -796.67408     14455.17 
     467 0.00021569057    -796.6741            0    -796.6741    14455.181 
     468 0.00022797759   -796.67412            0   -796.67412    14455.192 
     469 0.00024046826   -796.67414            0   -796.67414    14455.204 
     470 0.00025318517   -796.67417            0   -796.67416    14455.216 
     471 0.00026600866   -796.67419            0   -796.67418    14455.228 
     472 0.00027922696   -796.67421            0    -796.6742    14455.243 
     473 0.0002917439   -796.67423            0   -796.67423    14455.247 
     474  0.000305728   -796.67425            0   -796.67425     14455.29 
     475 0.00029732614   -796.67428            0   -796.67427    14455.208 
     476 0.00013582606   -796.67428            0   -796.67428    14455.335 
     477 1.0445969e-05   -796.67429            0   -796.67429    14455.306 
     478 1.0327363e-05   -796.67429            0   -796.67429    14455.291 
     479 1.1645237e-05   -796.67429            0   -796.67429    14455.287 
     480 1.4197065e-05    -796.6743            0    -796.6743    14455.288 
     481 1.7158349e-05    -796.6743            0    -796.6743    14455.291 
     482 2.0389263e-05   -796.67431            0   -796.67431    14455.294 
     483 2.3886386e-05   -796.67432            0   -796.67432    14455.298 
     484 2.7647481e-05   -796.67432            0   -796.67432    14455.302 
     485 3.1668593e-05   -796.67433            0   -796.67433    14455.306 
     486 3.5945513e-05   -796.67434            0   -796.67434     14455.31 
     487 4.047374e-05   -796.67435            0   -796.67435    14455.315 
     488 4.5248489e-05   -796.67436            0   -796.67435     14455.32 
     489 5.0264697e-05   -796.67436            0   -796.67436    14455.325 
     490 5.5517025e-05   -796.67437            0   -796.67437     14455.33 
     491 6.0999864e-05   -796.67439            0   -796.67438    14455.336 
     492 6.6707343e-05    -796.6744            0   -796.67439    14455.342 
     493 7.2633333e-05   -796.67441            0   -796.67441    14455.348 
     494 7.8771452e-05   -796.67442            0   -796.67442    14455.355 
     495 8.5115061e-05   -796.67443            0   -796.67443    14455.362 
     496 9.1657286e-05   -796.67444            0   -796.67444    14455.369 
     497 9.8391015e-05   -796.67446            0   -796.67446    14455.376 
     498 0.00010530891   -796.67447            0   -796.67447    14455.384 
     499 0.0001124034   -796.67449            0   -796.67448    14455.392 
     500 0.00011966673    -796.6745            0    -796.6745      14455.4 
     501 0.00012709086   -796.67452            0   -796.67451    14455.408 
     502 0.0001346677   -796.67453            0   -796.67453    14455.417 
     503 0.00014238866   -796.67455            0   -796.67455    14455.426 
     504 0.00015024565   -796.67456            0   -796.67456    14455.435 
     505 0.0001582286   -796.67458            0   -796.67458    14455.444 
     506 0.00016633238    -796.6746            0    -796.6746    14455.454 
     507 0.00017453669   -796.67462            0   -796.67461    14455.463 
     508 0.00018286822   -796.67464            0   -796.67463    14455.474 
     509 0.00019119337   -796.67466            0   -796.67465    14455.483 
     510 0.00019990077   -796.67467            0   -796.67467    14455.498 
     511 0.00020707798   -796.67469            0   -796.67469     14455.49 
     512 0.00021256811   -796.67471            0   -796.67471    14455.568 
     513 0.00010649377   -796.67472            0   -796.67472     14455.46 
     514 1.9301052e-06   -796.67472            0   -796.67472    14455.471 
     515 2.8390999e-06   -796.67472            0   -796.67472    14455.487 
     516 3.6009517e-06   -796.67473            0   -796.67473    14455.501 
     517 4.2451447e-06   -796.67473            0   -796.67473    14455.513 
     518 5.1318976e-06   -796.67473            0   -796.67473    14455.519 
     519 6.398142e-06   -796.67473            0   -796.67473    14455.523 
     520 7.925832e-06   -796.67474            0   -796.67474    14455.525 
     521 9.6392909e-06   -796.67474            0   -796.67474    14455.527 
     522 1.1519454e-05   -796.67475            0   -796.67475     14455.53 
     523 1.3561489e-05   -796.67475            0   -796.67475    14455.532 
     524 1.5762839e-05   -796.67476            0   -796.67476    14455.535 
     525 1.8121206e-05   -796.67476            0   -796.67476    14455.538 
     526 2.0634113e-05   -796.67477            0   -796.67477    14455.542 
     527 2.329891e-05   -796.67478            0   -796.67478    14455.545 
     528 2.6112776e-05   -796.67478            0   -796.67478    14455.549 
     529 2.907272e-05   -796.67479            0   -796.67479    14455.553 
     530 3.2175582e-05    -796.6748            0    -796.6748    14455.557 
     531 3.5418041e-05   -796.67481            0   -796.67481    14455.561 
     532 3.8796615e-05   -796.67481            0   -796.67481    14455.566 
     533 4.2307661e-05   -796.67482            0   -796.67482     14455.57 
     534 4.5947386e-05   -796.67483            0   -796.67483    14455.575 
     535 4.9711844e-05   -796.67484            0   -796.67484     14455.58 
     536 5.359694e-05   -796.67485            0   -796.67485    14455.586 
     537 5.7598438e-05   -796.67486            0   -796.67486    14455.591 
     538 6.1711961e-05   -796.67488            0   -796.67487    14455.597 
     539 6.5932995e-05   -796.67489            0   -796.67489    14455.603 
     540 7.0256897e-05    -796.6749            0    -796.6749    14455.609 
     541 7.4678888e-05   -796.67491            0   -796.67491    14455.616 
     542 7.9194081e-05   -796.67492            0   -796.67492    14455.622 
     543 8.379744e-05   -796.67494            0   -796.67494    14455.629 
     544 8.8483882e-05   -796.67495            0   -796.67495    14455.636 
     545 9.3248026e-05   -796.67496            0   -796.67496    14455.643 
     546 9.8084925e-05   -796.67498            0   -796.67498    14455.651 
     547 0.0001029879   -796.67499            0   -796.67499    14455.658 
     548 0.00010795533   -796.67501            0   -796.67501    14455.666 
     549 0.00011296845   -796.67502            0   -796.67502    14455.674 
     550 0.00011806784   -796.67504            0   -796.67504    14455.683 
     551 0.00012308225   -796.67506            0   -796.67505    14455.688 
     552 0.00012871575   -796.67507            0   -796.67507    14455.708 
     553 0.00013331267   -796.67509            0   -796.67509    14455.674 
     554 0.0001266656    -796.6751            0    -796.6751    14455.794 
     555 1.5176728e-06    -796.6751            0    -796.6751     14455.78 
     556 2.3574602e-06    -796.6751            0    -796.6751    14455.764 
     557 3.0316199e-06    -796.6751            0    -796.6751    14455.745 
     558 3.234894e-06    -796.6751            0    -796.6751     14455.73 
     559 3.1826134e-06   -796.67511            0   -796.67511     14455.72 
     560 3.5946388e-06   -796.67511            0   -796.67511    14455.717 
     561 4.4235197e-06   -796.67511            0   -796.67511    14455.718 
     562 5.410906e-06   -796.67512            0   -796.67511    14455.719 
     563 6.4965009e-06   -796.67512            0   -796.67512    14455.721 
     564 7.6770485e-06   -796.67512            0   -796.67512    14455.723 
     565 8.9519863e-06   -796.67513            0   -796.67513    14455.725 
     566 1.0319999e-05   -796.67513            0   -796.67513    14455.728 
     567 1.1779645e-05   -796.67514            0   -796.67514     14455.73 
     568 1.3329382e-05   -796.67514            0   -796.67514    14455.733 
     569 1.4967563e-05   -796.67515            0   -796.67515    14455.736 
     570 1.6692443e-05   -796.67515            0   -796.67515    14455.739 
     571 1.8502175e-05   -796.67516            0   -796.67516    14455.742 
     572 2.0394816e-05   -796.67517            0   -796.67517    14455.745 
     573 2.2368328e-05   -796.67517            0   -796.67517    14455.749 
     574 2.4420576e-05   -796.67518            0   -796.67518    14455.752 
     575 2.6549336e-05   -796.67519            0   -796.67519    14455.756 
     576 2.8752292e-05    -796.6752            0    -796.6752     14455.76 
     577 3.1027041e-05    -796.6752            0    -796.6752    14455.764 
     578 3.3371095e-05   -796.67521            0   -796.67521    14455.769 
     579 3.578188e-05   -796.67522            0   -796.67522    14455.773 
     580 3.8256744e-05   -796.67523            0   -796.67523    14455.778 
     581 4.079295e-05   -796.67524            0   -796.67524    14455.783 
     582 4.3387701e-05   -796.67525            0   -796.67525    14455.788 
     583 4.6038083e-05   -796.67526            0   -796.67526    14455.793 
     584 4.8741224e-05   -796.67527            0   -796.67527    14455.798 
     585 5.1493884e-05   -796.67528            0   -796.67528    14455.803 
     586 5.429358e-05   -796.67529            0   -796.67529    14455.809 
     587 5.7135381e-05    -796.6753            0    -796.6753    14455.815 
     588 6.0021573e-05   -796.67532            0   -796.67532    14455.821 
     589 6.2931141e-05   -796.67533            0   -796.67533    14455.827 
     590 6.5922169e-05   -796.67534            0   -796.67534    14455.834 
     591 6.8788741e-05   -796.67535            0   -796.67535    14455.836 
     592 7.2502663e-05   -796.67537            0   -796.67537    14455.859 
     593 7.5149348e-05   -796.67538            0   -796.67538    14455.807 
     594 3.097681e-05   -796.67538            0   -796.67538    14455.874 
     595 2.4768223e-06   -796.67538            0   -796.67538    14455.861 
     596 2.305261e-06   -796.67539            0   -796.67539    14455.856 
     597 2.7020001e-06   -796.67539            0   -796.67539    14455.856 
     598 3.3057274e-06   -796.67539            0   -796.67539    14455.857 
     599 3.9776176e-06   -796.67539            0   -796.67539    14455.859 
     600 4.7086968e-06    -796.6754            0    -796.6754     14455.86 
     601 5.4988895e-06    -796.6754            0    -796.6754    14455.862 
     602 6.3473793e-06    -796.6754            0    -796.6754    14455.864 
     603 7.2532695e-06   -796.67541            0   -796.67541    14455.866 
     604 8.2156011e-06   -796.67541            0   -796.67541    14455.868 
     605 9.2333498e-06   -796.67542            0   -796.67542     14455.87 
     606 1.0305428e-05   -796.67542            0   -796.67542    14455.873 
     607 1.1430687e-05   -796.67543            0   -796.67543    14455.875 
     608 1.2607915e-05   -796.67543            0   -796.67543    14455.878 
     609 1.3835841e-05   -796.67544            0   -796.67544    14455.881 
     610 1.5113134e-05   -796.67544            0   -796.67544    14455.884 
     611 1.6438407e-05   -796.67545            0   -796.67545    14455.887 
     612 1.7810216e-05   -796.67546            0   -796.67546     14455.89 
     613 1.9227059e-05   -796.67546            0   -796.67546    14455.893 
     614 2.0687385e-05   -796.67547            0   -796.67547    14455.897 
     615 2.2189587e-05   -796.67548            0   -796.67548      14455.9 
     616 2.373201e-05   -796.67549            0   -796.67549    14455.904 
     617 2.5312941e-05   -796.67549            0   -796.67549    14455.908 
     618 2.6930643e-05    -796.6755            0    -796.6755    14455.912 
     619 2.8583278e-05   -796.67551            0   -796.67551    14455.916 
     620 3.0269094e-05   -796.67552            0   -796.67552     14455.92 
     621 3.1985956e-05   -796.67553            0   -796.67553    14455.925 
     622 3.3732636e-05   -796.67554            0   -796.67554    14455.929 
     623 3.5505079e-05   -796.67555            0   -796.67555    14455.934 
     624 3.7307849e-05   -796.67556            0   -796.67556    14455.939 
     625 3.911778e-05   -796.67557            0   -796.67557    14455.943 
     626 4.1011424e-05   -796.67558            0   -796.67558     14455.95 
     627 4.2783667e-05   -796.67559            0   -796.67559    14455.948 
     628 4.6245775e-05    -796.6756            0    -796.6756     14455.98 
     629 4.7152648e-05   -796.67561            0   -796.67561    14455.913 
     630 2.0418532e-06   -796.67561            0   -796.67561    14455.929 
     631 2.2102861e-06   -796.67561            0   -796.67561    14455.946 
     632 1.8171468e-06   -796.67561            0   -796.67561    14455.958 
     633 1.5608837e-06   -796.67561            0   -796.67561    14455.963 
     634 1.8079315e-06   -796.67561            0   -796.67561    14455.965 
     635 2.197269e-06   -796.67562            0   -796.67562    14455.967 
     636 2.6325287e-06   -796.67562            0   -796.67562    14455.968 
     637 3.1061365e-06   -796.67562            0   -796.67562    14455.969 
     638 3.6172103e-06   -796.67562            0   -796.67562    14455.971 
     639 4.1652341e-06   -796.67563            0   -796.67563    14455.972 
     640 4.7496234e-06   -796.67563            0   -796.67563    14455.974 
     641 5.3697597e-06   -796.67563            0   -796.67563    14455.976 
     642 6.0249803e-06   -796.67564            0   -796.67564    14455.977 
     643 6.7145844e-06   -796.67564            0   -796.67564    14455.979 
     644 7.4378302e-06   -796.67565            0   -796.67565    14455.982 
     645 8.1939384e-06   -796.67565            0   -796.67565    14455.984 
     646 8.9820902e-06   -796.67566            0   -796.67566    14455.986 
     647 9.8014313e-06   -796.67566            0   -796.67566    14455.989 
     648 1.0651068e-05   -796.67567            0   -796.67567    14455.991 
     649 1.1530076e-05   -796.67567            0   -796.67567    14455.994 
     650 1.2437487e-05   -796.67568            0   -796.67568    14455.997 
     651 1.3372314e-05   -796.67568            0   -796.67568    14455.999 
     652 1.4333513e-05   -796.67569            0   -796.67569    14456.002 
     653 1.532005e-05    -796.6757            0    -796.6757    14456.006 
     654 1.6330775e-05    -796.6757            0    -796.6757    14456.009 
     655 1.7364698e-05   -796.67571            0   -796.67571    14456.012 
     656 1.8420342e-05   -796.67572            0   -796.67572    14456.015 
     657 1.9497386e-05   -796.67573            0   -796.67573    14456.019 
     658 2.0592224e-05   -796.67573            0   -796.67573    14456.023 
     659 2.171069e-05   -796.67574            0   -796.67574    14456.027 
     660 2.2829579e-05   -796.67575            0   -796.67575     14456.03 
     661 2.4019113e-05   -796.67576            0   -796.67576    14456.036 
     662 2.5038315e-05   -796.67577            0   -796.67577    14456.032 
     663 2.6553318e-05   -796.67577            0   -796.67577    14456.062 
     664 1.6272558e-05   -796.67578            0   -796.67578     14456.02 
     665 5.2947762e-07   -796.67578            0   -796.67578    14456.027 
     666 6.5640203e-07   -796.67578            0   -796.67578    14456.035 
     667 7.0706941e-07   -796.67578            0   -796.67578    14456.041 
     668 7.8228668e-07   -796.67578            0   -796.67578    14456.044 
     669 9.5536815e-07   -796.67578            0   -796.67578    14456.046 
     670 1.1867876e-06   -796.67578            0   -796.67578    14456.047 
     671 1.4497408e-06   -796.67579            0   -796.67579    14456.048 
     672 1.7390201e-06   -796.67579            0   -796.67579    14456.049 
     673 2.0537333e-06   -796.67579            0   -796.67579     14456.05 
     674 2.393499e-06   -796.67579            0   -796.67579    14456.051 
     675 2.7579646e-06    -796.6758            0    -796.6758    14456.052 
     676 3.1467437e-06    -796.6758            0    -796.6758    14456.054 
     677 3.5594241e-06    -796.6758            0    -796.6758    14456.055 
     678 3.9955654e-06   -796.67581            0   -796.67581    14456.057 
     679 4.4547011e-06   -796.67581            0   -796.67581    14456.059 
     680 4.9363375e-06   -796.67581            0   -796.67581     14456.06 
     681 5.4399559e-06   -796.67582            0   -796.67582    14456.062 
     682 5.9650115e-06   -796.67582            0   -796.67582    14456.064 
     683 6.510935e-06   -796.67583            0   -796.67583    14456.066 
     684 7.0771322e-06   -796.67583            0   -796.67583    14456.068 
     685 7.6629863e-06   -796.67583            0   -796.67583     14456.07 
     686 8.2678553e-06   -796.67584            0   -796.67584    14456.073 
     687 8.8910781e-06   -796.67584            0   -796.67584    14456.075 
     688 9.531965e-06   -796.67585            0   -796.67585    14456.078 
     689 1.0189819e-05   -796.67586            0   -796.67586     14456.08 
     690 1.0863892e-05   -796.67586            0   -796.67586    14456.083 
     691 1.1553485e-05   -796.67587            0   -796.67587    14456.086 
     692 1.225771e-05   -796.67587            0   -796.67587    14456.089 
     693 1.2976116e-05   -796.67588            0   -796.67588    14456.092 
     694 1.370694e-05   -796.67589            0   -796.67589    14456.095 
     695 1.4452247e-05   -796.67589            0   -796.67589    14456.098 
     696 1.5201963e-05    -796.6759            0    -796.6759    14456.101 
     697 1.5984901e-05   -796.67591            0   -796.67591    14456.105 
     698 1.6685676e-05   -796.67591            0   -796.67591    14456.104 
     699 1.7546676e-05   -796.67592            0   -796.67592    14456.122 
     700 1.3849929e-05   -796.67593            0   -796.67593    14456.089 
     701 4.6205266e-07   -796.67593            0   -796.67593    14456.097 
     702 5.6396408e-07   -796.67593            0   -796.67593    14456.104 
     703 5.7551699e-07   -796.67593            0   -796.67593     14456.11 
     704 5.8606239e-07   -796.67593            0   -796.67593    14456.114 
     705 6.9877883e-07   -796.67593            0   -796.67593    14456.115 
     706 8.605496e-07   -796.67593            0   -796.67593    14456.116 
     707 1.0432533e-06   -796.67593            0   -796.67593    14456.117 
     708 1.2433193e-06   -796.67594            0   -796.67594    14456.117 
     709 1.460262e-06   -796.67594            0   -796.67594    14456.118 
     710 1.6938541e-06   -796.67594            0   -796.67594    14456.119 
     711 1.9438499e-06   -796.67594            0   -796.67594    14456.121 
     712 2.2099849e-06   -796.67594            0   -796.67594    14456.122 
     713 2.4919766e-06   -796.67595            0   -796.67595    14456.123 
     714 2.7895242e-06   -796.67595            0   -796.67595    14456.124 
     715 3.1023094e-06   -796.67595            0   -796.67595    14456.126 
     716 3.4299961e-06   -796.67596            0   -796.67596    14456.127 
     717 3.7722315e-06   -796.67596            0   -796.67596    14456.129 
     718 4.1286456e-06   -796.67596            0   -796.67596    14456.131 
     719 4.4988525e-06   -796.67597            0   -796.67597    14456.132 
     720 4.8824497e-06   -796.67597            0   -796.67597    14456.134 
     721 5.2790196e-06   -796.67598            0   -796.67598    14456.136 
     722 5.6881289e-06   -796.67598            0   -796.67598    14456.138 
     723 6.1093299e-06   -796.67598            0   -796.67598     14456.14 
     724 6.5421604e-06   -796.67599            0   -796.67599    14456.142 
     725 6.986144e-06   -796.67599            0   -796.67599    14456.144 
     726 7.440792e-06     -796.676            0     -796.676    14456.147 
     727 7.9055999e-06     -796.676            0     -796.676    14456.149 
     728 8.3800581e-06   -796.67601            0   -796.67601    14456.151 
     729 8.8636245e-06   -796.67601            0   -796.67601    14456.154 
     730 9.3558065e-06   -796.67602            0   -796.67602    14456.156 
     731 9.8559111e-06   -796.67603            0   -796.67603    14456.159 
     732 1.0363847e-05   -796.67603            0   -796.67603    14456.162 
     733 1.0877339e-05   -796.67604            0   -796.67604    14456.164 
     734 1.1401001e-05   -796.67604            0   -796.67604    14456.168 
     735 1.1900228e-05   -796.67605            0   -796.67605    14456.169 
     736 1.2296893e-05   -796.67606            0   -796.67606    14456.177 
     737 1.0029147e-05   -796.67606            0   -796.67606    14456.163 
     738 1.1309002e-06   -796.67606            0   -796.67606    14456.176 
     739 6.7718801e-07   -796.67606            0   -796.67606    14456.177 
     740 8.073567e-07   -796.67607            0   -796.67607    14456.178 
     741 9.4868171e-07   -796.67607            0   -796.67607    14456.178 
     742 1.1009791e-06   -796.67607            0   -796.67607    14456.179 
     743 1.2639851e-06   -796.67607            0   -796.67607     14456.18 
     744 1.4375646e-06   -796.67607            0   -796.67607    14456.181 
     745 1.6215142e-06   -796.67608            0   -796.67608    14456.182 
     746 1.8156518e-06   -796.67608            0   -796.67608    14456.183 
     747 2.0197593e-06   -796.67608            0   -796.67608    14456.185 
     748 2.2336288e-06   -796.67608            0   -796.67608    14456.186 
     749 2.4570189e-06   -796.67609            0   -796.67609    14456.187 
     750 2.6897047e-06   -796.67609            0   -796.67609    14456.189 
     751 2.9314137e-06   -796.67609            0   -796.67609     14456.19 
     752 3.1819173e-06    -796.6761            0    -796.6761    14456.191 
     753 3.440889e-06    -796.6761            0    -796.6761    14456.193 
     754 3.7081467e-06    -796.6761            0    -796.6761    14456.195 
     755 3.9832046e-06   -796.67611            0   -796.67611    14456.196 
     756 4.2661669e-06   -796.67611            0   -796.67611    14456.198 
     757 4.5558015e-06   -796.67612            0   -796.67612      14456.2 
     758 4.8538848e-06   -796.67612            0   -796.67612    14456.202 
     759 5.1541226e-06   -796.67612            0   -796.67612    14456.203 
     760 5.4672315e-06   -796.67613            0   -796.67613    14456.206 
     761 5.7224937e-06   -796.67613            0   -796.67613    14456.206 
     762 5.7714834e-06   -796.67614            0   -796.67614    14456.215 
     763 3.5414568e-06   -796.67614            0   -796.67614    14456.204 
     764 4.0670957e-07   -796.67614            0   -796.67614    14456.209 
     765 3.6210891e-07   -796.67614            0   -796.67614    14456.211 
     766 3.9611122e-07   -796.67614            0   -796.67614    14456.212 
     767 4.8071024e-07   -796.67614            0   -796.67614    14456.213 
     768 5.7563397e-07   -796.67614            0   -796.67614    14456.213 
     769 6.7882666e-07   -796.67615            0   -796.67615    14456.214 
     770 7.901559e-07   -796.67615            0   -796.67615    14456.215 
     771 9.0950968e-07   -796.67615            0   -796.67615    14456.216 
     772 1.0367613e-06   -796.67615            0   -796.67615    14456.216 
     773 1.1717776e-06   -796.67615            0   -796.67615    14456.217 
     774 1.314415e-06   -796.67616            0   -796.67616    14456.218 
     775 1.4645228e-06   -796.67616            0   -796.67616    14456.219 
     776 1.6219405e-06   -796.67616            0   -796.67616     14456.22 
     777 1.7865006e-06   -796.67616            0   -796.67616    14456.221 
     778 1.9580262e-06   -796.67617            0   -796.67617    14456.223 
     779 2.136334e-06   -796.67617            0   -796.67617    14456.224 
     780 2.3212309e-06   -796.67617            0   -796.67617    14456.225 
     781 2.5125192e-06   -796.67617            0   -796.67617    14456.227 
     782 2.7099889e-06   -796.67618            0   -796.67618    14456.228 
     783 2.9134326e-06   -796.67618            0   -796.67618    14456.229 
     784 3.1226155e-06   -796.67618            0   -796.67618    14456.231 
     785 3.3373413e-06   -796.67619            0   -796.67619    14456.233 
     786 3.5573015e-06   -796.67619            0   -796.67619    14456.234 
     787 3.7824437e-06   -796.67619            0   -796.67619    14456.236 
     788 4.0120126e-06    -796.6762            0    -796.6762    14456.238 
     789 4.2471466e-06    -796.6762            0    -796.6762    14456.239 
     790 4.4829987e-06   -796.67621            0   -796.67621    14456.241 
     791 4.7292835e-06   -796.67621            0   -796.67621    14456.244 
     792 4.905444e-06   -796.67622            0   -796.67622    14456.243 
     793 4.6998832e-06   -796.67622            0   -796.67622    14456.254 
     794 1.3929397e-06   -796.67622            0   -796.67622    14456.244 
     795 2.5661831e-07   -796.67622            0   -796.67622    14456.247 
     796 2.6900751e-07   -796.67622            0   -796.67622    14456.248 
     797 3.2659597e-07   -796.67622            0   -796.67622    14456.249 
     798 3.9270326e-07   -796.67622            0   -796.67622    14456.249 
     799 4.6474488e-07   -796.67623            0   -796.67623     14456.25 
     800 5.425978e-07   -796.67623            0   -796.67623     14456.25 
     801 6.2618746e-07   -796.67623            0   -796.67623    14456.251 
     802 7.1542471e-07   -796.67623            0   -796.67623    14456.252 
     803 8.102171e-07   -796.67623            0   -796.67623    14456.252 
     804 9.1046434e-07   -796.67623            0   -796.67623    14456.253 
     805 1.0160612e-06   -796.67624            0   -796.67624    14456.254 
     806 1.1268954e-06   -796.67624            0   -796.67624    14456.255 
     807 1.2428499e-06   -796.67624            0   -796.67624    14456.256 
     808 1.3638006e-06   -796.67624            0   -796.67624    14456.257 
     809 1.4896194e-06   -796.67624            0   -796.67624    14456.258 
     810 1.6201704e-06   -796.67625            0   -796.67625    14456.259 
     811 1.755316e-06   -796.67625            0   -796.67625     14456.26 
     812 1.8949069e-06   -796.67625            0   -796.67625    14456.262 
     813 2.0387962e-06   -796.67626            0   -796.67626    14456.263 
     814 2.1868165e-06   -796.67626            0   -796.67626    14456.264 
     815 2.3388438e-06   -796.67626            0   -796.67626    14456.265 
     816 2.4946294e-06   -796.67626            0   -796.67626    14456.267 
     817 2.6542134e-06   -796.67627            0   -796.67627    14456.268 
     818 2.8168436e-06   -796.67627            0   -796.67627     14456.27 
     819 2.9837839e-06   -796.67627            0   -796.67627    14456.271 
     820 3.148846e-06   -796.67628            0   -796.67628    14456.272 
     821 3.3131421e-06   -796.67628            0   -796.67628    14456.275 
     822 3.2884039e-06   -796.67629            0   -796.67629    14456.273 
     823 2.1129288e-06   -796.67629            0   -796.67629    14456.282 
     824 1.198291e-07   -796.67629            0   -796.67629     14456.28 
     825 1.4087335e-07   -796.67629            0   -796.67629    14456.278 
     826 1.5923539e-07   -796.67629            0   -796.67629    14456.278 
     827 1.9540216e-07   -796.67629            0   -796.67629    14456.278 
     828 2.391634e-07   -796.67629            0   -796.67629    14456.279 
     829 2.8721335e-07   -796.67629            0   -796.67629    14456.279 
     830 3.3950217e-07   -796.67629            0   -796.67629    14456.279 
     831 3.9598263e-07   -796.67629            0   -796.67629     14456.28 
     832 4.5659532e-07    -796.6763            0    -796.6763    14456.281 
     833 5.2127777e-07    -796.6763            0    -796.6763    14456.281 
     834 5.8996241e-07    -796.6763            0    -796.6763    14456.282 
     835 6.6257759e-07    -796.6763            0    -796.6763    14456.283 
     836 7.3904699e-07    -796.6763            0    -796.6763    14456.283 
     837 8.1929027e-07    -796.6763            0    -796.6763    14456.284 
     838 9.0322261e-07   -796.67631            0   -796.67631    14456.285 
     839 9.907554e-07   -796.67631            0   -796.67631    14456.286 
     840 1.0817956e-06   -796.67631            0   -796.67631    14456.287 
     841 1.1762467e-06   -796.67631            0   -796.67631    14456.288 
     842 1.2740076e-06   -796.67631            0   -796.67631    14456.289 
     843 1.3749752e-06   -796.67632            0   -796.67632     14456.29 
     844 1.4790391e-06   -796.67632            0   -796.67632    14456.291 
     845 1.586093e-06   -796.67632            0   -796.67632    14456.292 
     846 1.6960104e-06   -796.67632            0   -796.67632    14456.293 
     847 1.8087017e-06   -796.67633            0   -796.67633    14456.294 
     848 1.9239716e-06   -796.67633            0   -796.67633    14456.295 
     849 2.0418956e-06   -796.67633            0   -796.67633    14456.297 
     850 2.1617511e-06   -796.67634            0   -796.67634    14456.298 
     851 2.2850243e-06   -796.67634            0   -796.67634      14456.3 
     852 2.4044568e-06   -796.67634            0   -796.67634      14456.3 
     853 2.5212113e-06   -796.67634            0   -796.67634    14456.304 
     854 2.3717024e-06   -796.67635            0   -796.67635    14456.299 
     855 8.8877869e-07   -796.67635            0   -796.67635    14456.307 
     856 6.9694868e-08   -796.67635            0   -796.67635    14456.306 
     857 8.2478189e-08   -796.67635            0   -796.67635    14456.305 
     858 1.0084438e-07   -796.67635            0   -796.67635    14456.305 
     859 1.2677149e-07   -796.67635            0   -796.67635    14456.305 
     860 1.5658371e-07   -796.67635            0   -796.67635    14456.305 
     861 1.8944139e-07   -796.67635            0   -796.67635    14456.306 
     862 2.2532011e-07   -796.67635            0   -796.67635    14456.306 
     863 2.6419115e-07   -796.67635            0   -796.67635    14456.307 
     864 3.060139e-07   -796.67636            0   -796.67636    14456.307 
     865 3.507456e-07   -796.67636            0   -796.67636    14456.308 
     866 3.9833994e-07   -796.67636            0   -796.67636    14456.308 
     867 4.4874766e-07   -796.67636            0   -796.67636    14456.309 
     868 5.0191623e-07   -796.67636            0   -796.67636    14456.309 
     869 5.5779022e-07   -796.67636            0   -796.67636     14456.31 
     870 6.1631109e-07   -796.67636            0   -796.67636    14456.311 
     871 6.7741751e-07   -796.67637            0   -796.67637    14456.311 
     872 7.4104509e-07   -796.67637            0   -796.67637    14456.312 
     873 8.0712693e-07   -796.67637            0   -796.67637    14456.313 
     874 8.7559299e-07   -796.67637            0   -796.67637    14456.314 
     875 9.4637126e-07   -796.67637            0   -796.67637    14456.315 
     876 1.0193859e-06   -796.67638            0   -796.67638    14456.316 
     877 1.0945611e-06   -796.67638            0   -796.67638    14456.317 
     878 1.171813e-06   -796.67638            0   -796.67638    14456.318 
     879 1.2510689e-06   -796.67638            0   -796.67638    14456.319 
     880 1.3322198e-06   -796.67638            0   -796.67638     14456.32 
     881 1.4152433e-06   -796.67639            0   -796.67639    14456.321 
     882 1.4998607e-06   -796.67639            0   -796.67639    14456.322 
     883 1.5864569e-06   -796.67639            0   -796.67639    14456.323 
     884 1.6725461e-06    -796.6764            0    -796.6764    14456.324 
     885 1.7555838e-06    -796.6764            0    -796.6764    14456.326 
     886 1.7228365e-06    -796.6764            0    -796.6764    14456.325 
     887 9.4712032e-07    -796.6764            0    -796.6764     14456.33 
     888 2.8336062e-08    -796.6764            0    -796.6764    14456.329 
     889 4.1715512e-08    -796.6764            0    -796.6764    14456.328 
     890 5.712321e-08    -796.6764            0    -796.6764    14456.328 
     891 7.3374158e-08    -796.6764            0    -796.6764    14456.328 
     892 9.2441515e-08    -796.6764            0    -796.6764    14456.328 
     893 1.1389523e-07   -796.67641            0   -796.67641    14456.328 
     894 1.3750711e-07   -796.67641            0   -796.67641    14456.329 
     895 1.632676e-07   -796.67641            0   -796.67641    14456.329 
     896 1.9115385e-07   -796.67641            0   -796.67641    14456.329 
     897 2.2113706e-07   -796.67641            0   -796.67641     14456.33 
     898 2.5318677e-07   -796.67641            0   -796.67641     14456.33 
     899 2.8727004e-07   -796.67641            0   -796.67641    14456.331 
     900 3.2335183e-07   -796.67641            0   -796.67641    14456.331 
     901 3.6139483e-07   -796.67641            0   -796.67641    14456.332 
     902 4.0135965e-07   -796.67641            0   -796.67641    14456.332 
     903 4.4320474e-07   -796.67642            0   -796.67642    14456.333 
     904 4.8688657e-07   -796.67642            0   -796.67642    14456.334 
     905 5.3235949e-07   -796.67642            0   -796.67642    14456.334 
     906 5.7957605e-07   -796.67642            0   -796.67642    14456.335 
     907 6.2848659e-07   -796.67642            0   -796.67642    14456.336 
     908 6.790401e-07   -796.67642            0   -796.67642    14456.336 
     909 7.3118283e-07   -796.67643            0   -796.67643    14456.337 
     910 7.8486119e-07   -796.67643            0   -796.67643    14456.338 
     911 8.4001564e-07   -796.67643            0   -796.67643    14456.339 
     912 8.9659496e-07   -796.67643            0   -796.67643     14456.34 
     913 9.5452139e-07   -796.67643            0   -796.67643    14456.341 
     914 1.0137793e-06   -796.67644            0   -796.67644    14456.342 
     915 1.0741568e-06   -796.67644            0   -796.67644    14456.342 
     916 1.1358309e-06   -796.67644            0   -796.67644    14456.343 
     917 1.1958481e-06   -796.67644            0   -796.67644    14456.344 
     918 1.2387236e-06   -796.67644            0   -796.67644    14456.346 
     919 1.0469982e-06   -796.67645            0   -796.67645    14456.345 
     920 1.9616353e-07   -796.67645            0   -796.67645    14456.347 
     921 3.8874355e-08   -796.67645            0   -796.67645    14456.347 
     922 5.2971331e-08   -796.67645            0   -796.67645    14456.347 
     923 6.6895885e-08   -796.67645            0   -796.67645    14456.347 
     924 8.2359148e-08   -796.67645            0   -796.67645    14456.348 
     925  9.93758e-08   -796.67645            0   -796.67645    14456.348 
     926 1.1793636e-07   -796.67645            0   -796.67645    14456.348 
     927 1.3802437e-07   -796.67645            0   -796.67645    14456.348 
     928 1.5961922e-07   -796.67645            0   -796.67645    14456.349 
     929 1.8269916e-07   -796.67645            0   -796.67645    14456.349 
     930 2.0724063e-07   -796.67645            0   -796.67645     14456.35 
     931 2.332186e-07   -796.67646            0   -796.67646     14456.35 
     932 2.606064e-07   -796.67646            0   -796.67646     14456.35 
     933 2.8937593e-07   -796.67646            0   -796.67646    14456.351 
     934 3.194975e-07   -796.67646            0   -796.67646    14456.351 
     935 3.5094003e-07   -796.67646            0   -796.67646    14456.352 
     936 3.836709e-07   -796.67646            0   -796.67646    14456.353 
     937 4.1765628e-07   -796.67646            0   -796.67646    14456.353 
     938 4.5286066e-07   -796.67646            0   -796.67646    14456.354 
     939 4.8924777e-07   -796.67647            0   -796.67647    14456.354 
     940 5.2677897e-07   -796.67647            0   -796.67647    14456.355 
     941 5.6541656e-07   -796.67647            0   -796.67647    14456.356 
     942 6.051169e-07   -796.67647            0   -796.67647    14456.356 
     943 6.4584611e-07   -796.67647            0   -796.67647    14456.357 
     944 6.8754163e-07   -796.67647            0   -796.67647    14456.358 
     945 7.3020864e-07   -796.67648            0   -796.67648    14456.359 
     946 7.736245e-07   -796.67648            0   -796.67648     14456.36 
     947 8.1787852e-07   -796.67648            0   -796.67648     14456.36 
     948 8.582202e-07   -796.67648            0   -796.67648    14456.361 
     949 8.6045685e-07   -796.67648            0   -796.67648    14456.363 
     950 5.1505698e-07   -796.67649            0   -796.67649    14456.362 
     951 2.4255418e-08   -796.67649            0   -796.67649    14456.362 
     952 3.898516e-08   -796.67649            0   -796.67649    14456.363 
     953 4.9209827e-08   -796.67649            0   -796.67649    14456.363 
     954 6.0323462e-08   -796.67649            0   -796.67649    14456.363 
     955 7.2728783e-08   -796.67649            0   -796.67649    14456.364 
     956 8.6261955e-08   -796.67649            0   -796.67649    14456.364 
     957 1.0090398e-07   -796.67649            0   -796.67649    14456.364 
     958 1.1664122e-07   -796.67649            0   -796.67649    14456.365 
     959 1.3345745e-07   -796.67649            0   -796.67649    14456.365 
     960 1.513359e-07   -796.67649            0   -796.67649    14456.365 
     961 1.702583e-07   -796.67649            0   -796.67649    14456.366 
     962 1.9020553e-07   -796.67649            0   -796.67649    14456.366 
     963 2.1115711e-07   -796.67649            0   -796.67649    14456.366 
     964 2.3309177e-07    -796.6765            0    -796.6765    14456.367 
     965 2.5598683e-07    -796.6765            0    -796.6765    14456.367 
     966 2.7981909e-07    -796.6765            0    -796.6765    14456.368 
     967 3.0456352e-07    -796.6765            0    -796.6765    14456.368 
     968 3.3019551e-07    -796.6765            0    -796.6765    14456.369 
     969 3.5668688e-07    -796.6765            0    -796.6765    14456.369 
     970 3.8401381e-07    -796.6765            0    -796.6765     14456.37 
     971 4.1214014e-07    -796.6765            0    -796.6765    14456.371 
     972 4.4105524e-07   -796.67651            0   -796.67651    14456.371 
     973 4.7068216e-07   -796.67651            0   -796.67651    14456.372 
     974 5.0111206e-07   -796.67651            0   -796.67651    14456.372 
     975 5.319436e-07   -796.67651            0   -796.67651    14456.373 
     976 5.6401103e-07   -796.67651            0   -796.67651    14456.374 
     977 5.9226034e-07   -796.67651            0   -796.67651    14456.374 
     978 6.0793487e-07   -796.67651            0   -796.67651    14456.377 
     979 4.1929106e-07   -796.67652            0   -796.67652    14456.373 
     980 3.1534554e-08   -796.67652            0   -796.67652    14456.374 
     981 3.2632117e-08   -796.67652            0   -796.67652    14456.376 
     982 3.3887147e-08   -796.67652            0   -796.67652    14456.376 
     983 4.127559e-08   -796.67652            0   -796.67652    14456.376 
     984 5.0120408e-08   -796.67652            0   -796.67652    14456.376 
     985 5.9816356e-08   -796.67652            0   -796.67652    14456.377 
     986 7.0337232e-08   -796.67652            0   -796.67652    14456.377 
     987 8.1674271e-08   -796.67652            0   -796.67652    14456.377 
     988 9.3815644e-08   -796.67652            0   -796.67652    14456.377 
     989 1.0674946e-07   -796.67652            0   -796.67652    14456.378 
     990 1.2046254e-07   -796.67652            0   -796.67652    14456.378 
     991 1.3494121e-07   -796.67652            0   -796.67652    14456.378 
     992 1.5017068e-07   -796.67652            0   -796.67652    14456.379 
     993 1.6613567e-07   -796.67652            0   -796.67652    14456.379 
     994 1.8281976e-07   -796.67653            0   -796.67653     14456.38 
     995 2.0020622e-07   -796.67653            0   -796.67653     14456.38 
     996 2.182769e-07   -796.67653            0   -796.67653     14456.38 
     997 2.3701405e-07   -796.67653            0   -796.67653    14456.381 
     998 2.5639713e-07   -796.67653            0   -796.67653    14456.381 
     999 2.7640899e-07   -796.67653            0   -796.67653    14456.382 
    1000 2.9702321e-07   -796.67653            0   -796.67653    14456.382 
    1001 3.1823204e-07   -796.67653            0   -796.67653    14456.383 
    1002 3.3998004e-07   -796.67653            0   -796.67653    14456.383 
    1003 3.6232721e-07   -796.67654            0   -796.67654    14456.384 
    1004 3.8498361e-07   -796.67654            0   -796.67654    14456.384 
    1005 4.0834628e-07   -796.67654            0   -796.67654    14456.385 
    1006 4.2765052e-07   -796.67654            0   -796.67654    14456.385 
    1007 4.2255165e-07   -796.67654            0   -796.67654    14456.387 
    1008 2.2106719e-07   -796.67654            0   -796.67654    14456.385 
    1009 1.2763266e-08   -796.67654            0   -796.67654    14456.386 
    1010  1.69433e-08   -796.67654            0   -796.67654    14456.387 
    1011 2.0819533e-08   -796.67654            0   -796.67654    14456.387 
    1012 2.5909932e-08   -796.67654            0   -796.67654    14456.387 
    1013 3.1974896e-08   -796.67654            0   -796.67654    14456.387 
    1014 3.8702787e-08   -796.67654            0   -796.67654    14456.387 
    1015 4.6054775e-08   -796.67654            0   -796.67654    14456.388 
    1016 5.4022185e-08   -796.67655            0   -796.67655    14456.388 
    1017 6.2597402e-08   -796.67655            0   -796.67655    14456.388 
    1018 7.1771847e-08   -796.67655            0   -796.67655    14456.388 
    1019 8.1536437e-08   -796.67655            0   -796.67655    14456.389 
    1020 9.1881391e-08   -796.67655            0   -796.67655    14456.389 
[...]
    2383 1.3389917e-07   -796.59869            0   -796.59869    14468.834 
    2384 1.4656352e-07   -796.59869            0   -796.59869    14468.835 
    2385 1.5968396e-07   -796.59869            0   -796.59869    14468.837 
    2386 1.732404e-07   -796.59869            0   -796.59869    14468.839 
    2387 1.8721145e-07   -796.59869            0   -796.59869    14468.841 
    2388 2.0157582e-07   -796.59869            0   -796.59869    14468.843 
    2389 2.1631021e-07   -796.59869            0   -796.59869    14468.845 
    2390 2.3139303e-07   -796.59869            0   -796.59869    14468.847 
    2391 2.4679716e-07   -796.59869            0   -796.59869    14468.849 
    2392 2.6250416e-07   -796.59869            0   -796.59869    14468.851 
    2393 2.7846701e-07   -796.59869            0   -796.59869    14468.854 
    2394 2.9465978e-07   -796.59869            0   -796.59869    14468.856 
    2395 3.1065419e-07   -796.59869            0   -796.59869    14468.859 
    2396 3.2427291e-07   -796.59869            0   -796.59869    14468.861 
    2397 3.1396543e-07   -796.59869            0   -796.59869    14468.864 
    2398 1.7474595e-07   -796.59869            0   -796.59869    14468.865 
    2399 1.4261738e-08   -796.59869            0   -796.59869    14468.866 
    2400 2.1355899e-08   -796.59869            0   -796.59869    14468.867 
    2401 2.5506689e-08   -796.59869            0   -796.59869    14468.867 
    2402 3.0113949e-08   -796.59869            0   -796.59869    14468.868 
    2403 3.5079267e-08   -796.59869            0   -796.59869    14468.869 
    2404 4.0396018e-08   -796.59869            0   -796.59869     14468.87 
    2405 4.6055973e-08   -796.59869            0   -796.59869    14468.871 
    2406 5.2050557e-08   -796.59869            0   -796.59869    14468.872 
    2407 5.8370574e-08   -796.59869            0   -796.59869    14468.873 
    2408 6.5006328e-08   -796.59869            0   -796.59869    14468.874 
    2409 7.1947574e-08   -796.59869            0   -796.59869    14468.875 
    2410 7.9183579e-08   -796.59869            0   -796.59869    14468.876 
    2411 8.6703094e-08   -796.59869            0   -796.59869    14468.877 
    2412 9.4494414e-08   -796.59869            0   -796.59869    14468.879 
    2413 1.0254534e-07   -796.59869            0   -796.59869     14468.88 
    2414 1.1084327e-07   -796.59869            0   -796.59869    14468.882 
    2415 1.1937512e-07   -796.59869            0   -796.59869    14468.883 
    2416 1.2812747e-07   -796.59869            0   -796.59869    14468.885 
    2417 1.3708636e-07   -796.59869            0   -796.59869    14468.886 
    2418 1.4623774e-07   -796.59869            0   -796.59869    14468.888 
    2419 1.5556664e-07   -796.59869            0   -796.59869     14468.89 
    2420 1.6505895e-07   -796.59869            0   -796.59869    14468.892 
    2421 1.7469712e-07   -796.59869            0   -796.59869    14468.893 
    2422 1.8446958e-07   -796.59869            0   -796.59869    14468.895 
    2423 1.9433323e-07   -796.59869            0   -796.59869    14468.897 
    2424 2.0420693e-07   -796.59869            0   -796.59869    14468.899 
    2425 2.1284785e-07   -796.59868            0   -796.59868    14468.901 
    2426 2.0927345e-07   -796.59868            0   -796.59868    14468.903 
    2427 1.1635494e-07   -796.59868            0   -796.59868    14468.905 
    2428 5.3278805e-09   -796.59868            0   -796.59868    14468.905 
    2429 8.9842515e-09   -796.59868            0   -796.59868    14468.905 
    2430 1.1412404e-08   -796.59868            0   -796.59868    14468.906 
    2431 1.3722204e-08   -796.59868            0   -796.59868    14468.906 
    2432 1.6243922e-08   -796.59868            0   -796.59868    14468.907 
    2433 1.8965924e-08   -796.59868            0   -796.59868    14468.907 
    2434 2.1883676e-08   -796.59868            0   -796.59868    14468.908 
    2435 2.499275e-08   -796.59868            0   -796.59868    14468.909 
    2436 2.8288357e-08   -796.59868            0   -796.59868    14468.909 
    2437 3.1765414e-08   -796.59868            0   -796.59868     14468.91 
    2438 3.5418527e-08   -796.59868            0   -796.59868    14468.911 
    2439 3.9242014e-08   -796.59868            0   -796.59868    14468.912 
    2440 4.3229901e-08   -796.59868            0   -796.59868    14468.913 
    2441 4.7375939e-08   -796.59868            0   -796.59868    14468.914 
    2442 5.1673607e-08   -796.59868            0   -796.59868    14468.915 
    2443 5.6116127e-08   -796.59868            0   -796.59868    14468.916 
    2444 6.0696464e-08   -796.59868            0   -796.59868    14468.917 
    2445 6.540735e-08   -796.59868            0   -796.59868    14468.918 
    2446 7.0241272e-08   -796.59868            0   -796.59868    14468.919 
    2447 7.519052e-08   -796.59868            0   -796.59868     14468.92 
    2448 8.0247131e-08   -796.59868            0   -796.59868    14468.922 
    2449 8.5403024e-08   -796.59868            0   -796.59868    14468.923 
    2450 9.0649752e-08   -796.59868            0   -796.59868    14468.924 
    2451 9.5979098e-08   -796.59868            0   -796.59868    14468.926 
    2452 1.0138162e-07   -796.59868            0   -796.59868    14468.927 
    2453 1.0685014e-07   -796.59868            0   -796.59868    14468.928 
    2454 1.1236731e-07   -796.59868            0   -796.59868     14468.93 
    2455 1.1791367e-07   -796.59868            0   -796.59868    14468.931 
    2456 1.2313372e-07   -796.59868            0   -796.59868    14468.933 
    2457 1.247991e-07   -796.59868            0   -796.59868    14468.934 
    2458 9.0348725e-08   -796.59868            0   -796.59868    14468.936 
    2459 7.3660793e-09   -796.59868            0   -796.59868    14468.936 
    2460 8.221577e-09   -796.59868            0   -796.59868    14468.936 
    2461 9.650203e-09   -796.59868            0   -796.59868    14468.937 
    2462 1.1195642e-08   -796.59868            0   -796.59868    14468.937 
    2463 1.2846598e-08   -796.59868            0   -796.59868    14468.938 
    2464 1.4600902e-08   -796.59868            0   -796.59868    14468.938 
    2465 1.6455638e-08   -796.59868            0   -796.59868    14468.939 
    2466 1.8407996e-08   -796.59868            0   -796.59868    14468.939 
    2467 2.0454861e-08   -796.59868            0   -796.59868     14468.94 
    2468 2.2593057e-08   -796.59868            0   -796.59868    14468.941 
    2469 2.4819167e-08   -796.59868            0   -796.59868    14468.941 
    2470 2.7129707e-08   -796.59868            0   -796.59868    14468.942 
    2471 2.9520959e-08   -796.59868            0   -796.59868    14468.943 
    2472 3.198917e-08   -796.59868            0   -796.59868    14468.944 
    2473 3.4530305e-08   -796.59868            0   -796.59868    14468.944 
    2474 3.7140427e-08   -796.59868            0   -796.59868    14468.945 
    2475 3.981508e-08   -796.59868            0   -796.59868    14468.946 
    2476 4.2550391e-08   -796.59868            0   -796.59868    14468.947 
    2477 4.5340847e-08   -796.59868            0   -796.59868    14468.948 
    2478 4.8183332e-08   -796.59868            0   -796.59868    14468.949 
    2479 5.1064557e-08   -796.59868            0   -796.59868     14468.95 
    2480 5.396633e-08   -796.59868            0   -796.59868    14468.951 
    2481 5.6666889e-08   -796.59868            0   -796.59868    14468.952 
    2482 5.7772447e-08   -796.59868            0   -796.59868    14468.953 
    2483 4.6839982e-08   -796.59868            0   -796.59868    14468.954 
    2484 1.1208378e-08   -796.59868            0   -796.59868    14468.954 
    2485 3.1124235e-09   -796.59868            0   -796.59868    14468.955 
    2486 3.929808e-09   -796.59868            0   -796.59868    14468.955 
    2487 4.7116416e-09   -796.59868            0   -796.59868    14468.955 
    2488 5.5614001e-09   -796.59868            0   -796.59868    14468.955 
    2489 6.4770778e-09   -796.59868            0   -796.59868    14468.956 
    2490 7.457313e-09   -796.59868            0   -796.59868    14468.956 
    2491 8.5005728e-09   -796.59868            0   -796.59868    14468.957 
    2492 9.6052292e-09   -796.59868            0   -796.59868    14468.957 
    2493 1.0769548e-08   -796.59868            0   -796.59868    14468.957 
    2494 1.1991694e-08   -796.59868            0   -796.59868    14468.958 
    2495 1.3269735e-08   -796.59868            0   -796.59868    14468.958 
    2496 1.4601643e-08   -796.59868            0   -796.59868    14468.959 
    2497 1.5985296e-08   -796.59868            0   -796.59868    14468.959 
    2498 1.7418485e-08   -796.59868            0   -796.59868     14468.96 
    2499 1.8898911e-08   -796.59868            0   -796.59868    14468.961 
    2500 2.0424197e-08   -796.59868            0   -796.59868    14468.961 
    2501 2.1991881e-08   -796.59868            0   -796.59868    14468.962 
    2502 2.359943e-08   -796.59868            0   -796.59868    14468.962 
    2503 2.5244231e-08   -796.59868            0   -796.59868    14468.963 
    2504 2.6923614e-08   -796.59868            0   -796.59868    14468.964 
    2505 2.8634825e-08   -796.59868            0   -796.59868    14468.965 
    2506 3.0375088e-08   -796.59868            0   -796.59868    14468.965 
    2507 3.214147e-08   -796.59868            0   -796.59868    14468.966 
    2508 3.3931226e-08   -796.59868            0   -796.59868    14468.967 
    2509 3.574074e-08   -796.59868            0   -796.59868    14468.968 
    2510 3.7567383e-08   -796.59868            0   -796.59868    14468.969 
    2511 3.9391737e-08   -796.59868            0   -796.59868    14468.969 
    2512 4.1101571e-08   -796.59868            0   -796.59868     14468.97 
    2513 4.1182331e-08   -796.59868            0   -796.59868    14468.971 
    2514 2.7141798e-08   -796.59868            0   -796.59868    14468.972 
    2515 1.4603779e-09   -796.59868            0   -796.59868    14468.972 
    2516 2.3277915e-09   -796.59868            0   -796.59868    14468.972 
    2517 2.7290848e-09   -796.59868            0   -796.59868    14468.972 
    2518 3.2043198e-09   -796.59868            0   -796.59868    14468.973 
    2519 3.715262e-09   -796.59868            0   -796.59868    14468.973 
    2520 4.2609582e-09   -796.59868            0   -796.59868    14468.973 
    2521 4.8405704e-09   -796.59868            0   -796.59868    14468.974 
    2522 5.4531781e-09   -796.59868            0   -796.59868    14468.974 
    2523 6.0978152e-09   -796.59868            0   -796.59868    14468.974 
    2524 6.7734552e-09   -796.59868            0   -796.59868    14468.975 
    2525 7.4790226e-09   -796.59868            0   -796.59868    14468.975 
    2526 8.2133871e-09   -796.59868            0   -796.59868    14468.975 
    2527 8.9753715e-09   -796.59868            0   -796.59868    14468.976 
    2528 9.7637473e-09   -796.59868            0   -796.59868    14468.976 
    2529 1.0577244e-08   -796.59868            0   -796.59868    14468.977 
    2530 1.141454e-08   -796.59868            0   -796.59868    14468.977 
    2531 1.2274281e-08   -796.59868            0   -796.59868    14468.977 
    2532 1.3155055e-08   -796.59868            0   -796.59868    14468.978 
    2533 1.4055444e-08   -796.59868            0   -796.59868    14468.978 
    2534 1.4973929e-08   -796.59868            0   -796.59868    14468.979 
    2535 1.5909087e-08   -796.59868            0   -796.59868     14468.98 
    2536 1.6859138e-08   -796.59868            0   -796.59868     14468.98 
    2537 1.7822867e-08   -796.59868            0   -796.59868    14468.981 
    2538 1.8796063e-08   -796.59868            0   -796.59868    14468.981 
    2539 1.9770717e-08   -796.59868            0   -796.59868    14468.982 
    2540 2.0640414e-08   -796.59868            0   -796.59868    14468.983 
    2541 2.0530589e-08   -796.59868            0   -796.59868    14468.983 
    2542 1.3076975e-08   -796.59868            0   -796.59868    14468.984 
    2543 1.0219064e-09   -796.59868            0   -796.59868    14468.984 
    2544 1.4435069e-09   -796.59868            0   -796.59868    14468.984 
    2545 1.6917541e-09   -796.59868            0   -796.59868    14468.984 
    2546 1.9756973e-09   -796.59868            0   -796.59868    14468.984 
    2547 2.2800432e-09   -796.59868            0   -796.59868    14468.984 
    2548 2.6043605e-09   -796.59868            0   -796.59868    14468.985 
    2549 2.9480902e-09   -796.59868            0   -796.59868    14468.985 
    2550 3.3107036e-09   -796.59868            0   -796.59868    14468.985 
    2551 3.6916128e-09   -796.59868            0   -796.59868    14468.985 
    2552 4.0902159e-09   -796.59868            0   -796.59868    14468.986 
    2553 4.5058669e-09   -796.59868            0   -796.59868    14468.986 
    2554 4.9379026e-09   -796.59868            0   -796.59868    14468.986 
    2555 5.3856189e-09   -796.59868            0   -796.59868    14468.987 
    2556 5.8482983e-09   -796.59868            0   -796.59868    14468.987 
    2557 6.3251783e-09   -796.59868            0   -796.59868    14468.987 
    2558 6.8154983e-09   -796.59868            0   -796.59868    14468.988 
    2559 7.3184295e-09   -796.59868            0   -796.59868    14468.988 
    2560 7.833195e-09   -796.59868            0   -796.59868    14468.988 
    2561 8.3588458e-09   -796.59868            0   -796.59868    14468.989 
    2562 8.8946772e-09   -796.59868            0   -796.59868    14468.989 
    2563 9.4391468e-09   -796.59868            0   -796.59868    14468.989 
    2564 9.9911111e-09   -796.59868            0   -796.59868     14468.99 
    2565 1.0537855e-08   -796.59868            0   -796.59868     14468.99 
    2566 1.1015764e-08   -796.59868            0   -796.59868    14468.991 
    2567 1.0838425e-08   -796.59868            0   -796.59868    14468.991 
    2568 6.9044597e-09   -796.59868            0   -796.59868    14468.991 
    2569 7.9353873e-10   -796.59868            0   -796.59868    14468.992 
    2570 9.3174762e-10   -796.59868            0   -796.59868    14468.992 
    2571 1.0971159e-09   -796.59868            0   -796.59868    14468.992 
    2572 1.2756586e-09   -796.59868            0   -796.59868    14468.992 
    2573 1.466667e-09   -796.59868            0   -796.59868    14468.992 
    2574 1.6697819e-09   -796.59868            0   -796.59868    14468.992 
    2575 1.8846937e-09   -796.59868            0   -796.59868    14468.993 
    2576 2.1110529e-09   -796.59868            0   -796.59868    14468.993 
    2577 2.3485007e-09   -796.59868            0   -796.59868    14468.993 
    2578 2.5966525e-09   -796.59868            0   -796.59868    14468.993 
    2579 2.8551109e-09   -796.59868            0   -796.59868    14468.993 
    2580 3.1234548e-09   -796.59868            0   -796.59868    14468.994 
    2581 3.4012522e-09   -796.59868            0   -796.59868    14468.994 
    2582 3.6880468e-09   -796.59868            0   -796.59868    14468.994 
    2583 3.9833766e-09   -796.59868            0   -796.59868    14468.994 
    2584 4.2867487e-09   -796.59868            0   -796.59868    14468.995 
    2585 4.5976813e-09   -796.59868            0   -796.59868    14468.995 
    2586 4.9156313e-09   -796.59868            0   -796.59868    14468.995 
    2587 5.2401289e-09   -796.59868            0   -796.59868    14468.996 
    2588 5.5704756e-09   -796.59868            0   -796.59868    14468.996 
    2589 5.9062484e-09   -796.59868            0   -796.59868    14468.996 
    2590 6.2449955e-09   -796.59868            0   -796.59868    14468.997 
    2591 6.5797428e-09   -796.59868            0   -796.59868    14468.997 
    2592 6.8377876e-09   -796.59868            0   -796.59868    14468.997 
    2593 6.492168e-09   -796.59868            0   -796.59868    14468.998 
    2594 3.1761915e-09   -796.59868            0   -796.59868    14468.998 
    2595 2.6477088e-10   -796.59868            0   -796.59868    14468.998 
    2596 4.0484754e-10   -796.59868            0   -796.59868    14468.998 
    2597 4.9206133e-10   -796.59868            0   -796.59868    14468.998 
    2598 5.8607126e-10   -796.59868            0   -796.59868    14468.998 
    2599 6.8795757e-10   -796.59868            0   -796.59868    14468.998 
    2600 7.9744083e-10   -796.59868            0   -796.59868    14468.998 
    2601 9.1435008e-10   -796.59868            0   -796.59868    14468.999 
    2602 1.0384989e-09   -796.59868            0   -796.59868    14468.999 
    2603 1.1696895e-09   -796.59868            0   -796.59868    14468.999 
    2604 1.3077112e-09   -796.59868            0   -796.59868    14468.999 
    2605 1.4523422e-09   -796.59868            0   -796.59868    14468.999 
    2606 1.6033491e-09   -796.59868            0   -796.59868    14468.999 
    2607 1.7604873e-09   -796.59868            0   -796.59868    14468.999 
    2608 1.9235016e-09   -796.59868            0   -796.59868        14469 
    2609 2.0921266e-09   -796.59868            0   -796.59868        14469 
    2610 2.2660867e-09   -796.59868            0   -796.59868        14469 
    2611 2.4450974e-09   -796.59868            0   -796.59868        14469 
    2612 2.6288642e-09   -796.59868            0   -796.59868        14469 
    2613 2.8170852e-09   -796.59868            0   -796.59868    14469.001 
    2614 3.009449e-09   -796.59868            0   -796.59868    14469.001 
    2615 3.2056383e-09   -796.59868            0   -796.59868    14469.001 
    2616 3.4053256e-09   -796.59868            0   -796.59868    14469.001 
    2617 3.6081825e-09   -796.59868            0   -796.59868    14469.002 
    2618 3.8138599e-09   -796.59868            0   -796.59868    14469.002 
    2619 4.0220324e-09   -796.59868            0   -796.59868    14469.002 
    2620 4.2322248e-09   -796.59868            0   -796.59868    14469.002 
    2621 4.4437712e-09   -796.59868            0   -796.59868    14469.003 
    2622 4.650266e-09   -796.59868            0   -796.59868    14469.003 
    2623 4.792077e-09   -796.59868            0   -796.59868    14469.003 
    2624 4.1947875e-09   -796.59868            0   -796.59868    14469.004 
    2625 9.2003688e-10   -796.59868            0   -796.59868    14469.004 
    2626 5.8317651e-11   -796.59868            0   -796.59868    14469.004 
Loop time of 580.077 on 24 procs for 891 steps with 127 atoms

98.2% CPU use with 24 MPI tasks x no OpenMP threads

Minimization stats:
  Stopping criterion = energy tolerance
  Energy initial, next-to-last, final = 
         -796.67671473     -796.598678817     -796.598678816
  Force two-norm initial, final = 3.05141e-06 7.64126e-06
  Force max component initial, final = 2.25031e-06 3.80608e-06
  Final line search alpha, max atom move = 0 0
  Iterations, force evaluations = 891 891

MPI task timing breakdown:
Section |  min time  |  avg time  |  max time  |%varavg| %total
---------------------------------------------------------------
Pair    | 218.7      | 384.23     | 518.21     | 459.0 | 66.24
Neigh   | 0          | 0          | 0          |   0.0 |  0.00
Comm    | 0.11327    | 134.1      | 299.63     | 776.9 | 23.12
Output  | 0.15924    | 0.15983    | 0.16074    |   0.1 |  0.03
Modify  | 4.9442     | 4.9458     | 4.9469     |   0.0 |  0.85
Other   |            | 56.64      |            |       |  9.77

Nlocal:    5.29167 ave 7 max 3 min
Histogram: 4 0 0 0 0 9 0 7 0 4
Nghost:    761.875 ave 803 max 714 min
Histogram: 5 3 0 0 0 5 3 0 3 5
Neighs:    0 ave 0 max 0 min
Histogram: 24 0 0 0 0 0 0 0 0 0
FullNghs:  1068.08 ave 1408 max 611 min
Histogram: 4 0 0 0 5 4 0 7 0 4

Total # of neighbors = 25634
Ave neighs/atom = 201.843
Neighbor list builds = 0
Dangerous builds = 0
Total wall time: 0:28:56
