LAMMPS (12 Dec 2018)
Processor partition = 0
Reading data file ...
  orthogonal box = (0 0 0) to (10.0025 12.3537 10.615)
  2 by 4 by 3 MPI processor grid
  reading atoms ...
  127 atoms
Reading potential file lammps-force.nnp with DATE: 20201105
Reading potential file lammps_rot.nnp with DATE: 20211226
Neighbor list info ...
  update every 1 steps, delay 0 steps, check yes
  max neighbors/atom: 2000, page size: 100000
  master list distance cutoff = 8
  ghost atom cutoff = 8
  binsize = 4, bins = 3 4 3
  2 neighbor lists, perpetual/occasional/extra = 2 0 0
  (1) pair nnp3v, perpetual
      attributes: full, newton on
      pair build: full/bin/atomonly
      stencil: full/bin/3d
      bin: standard
  (2) pair nnp3v_vf, perpetual, copy from (1)
      attributes: full, newton on
      pair build: copy
      stencil: none
      bin: none
Setting up quickmin style minimization ...
  Unit style    : metal
  Current step  : 0
Per MPI rank memory allocation (min/avg/max) = 3.111 | 3.226 | 3.362 Mbytes
Step Temp E_pair E_mol TotEng Press 
       0            0   -796.79482            0   -796.79482    13324.103 
      24   0.66844098   -796.99042            0   -796.97954    13893.519 
Loop time of 14.5044 on 24 procs for 24 steps with 127 atoms

98.5% CPU use with 24 MPI tasks x no OpenMP threads

Minimization stats:
  Stopping criterion = energy tolerance
  Energy initial, next-to-last, final = 
        -796.794816724     -796.990398619     -796.990424995
  Force two-norm initial, final = 1.98977 0.177561
  Force max component initial, final = 0.330078 0.036579
  Final line search alpha, max atom move = 0 0
  Iterations, force evaluations = 24 24

MPI task timing breakdown:
Section |  min time  |  avg time  |  max time  |%varavg| %total
---------------------------------------------------------------
Pair    | 5.9807     | 10.677     | 14.502     |  77.8 | 73.61
Neigh   | 0          | 0          | 0          |   0.0 |  0.00
Comm    | 0.0017638  | 3.8261     | 8.5225     | 130.0 | 26.38
Output  | 0          | 0          | 0          |   0.0 |  0.00
Modify  | 0          | 0          | 0          |   0.0 |  0.00
Other   |            | 0.001139   |            |       |  0.01

Nlocal:    5.29167 ave 7 max 3 min
Histogram: 4 0 0 0 0 9 0 7 0 4
Nghost:    759.125 ave 797 max 714 min
Histogram: 7 1 0 0 0 2 6 0 0 8
Neighs:    0 ave 0 max 0 min
Histogram: 24 0 0 0 0 0 0 0 0 0
FullNghs:  1068 ave 1413 max 614 min
Histogram: 4 0 0 0 5 4 0 7 0 4

Total # of neighbors = 25632
Ave neighs/atom = 201.827
Neighbor list builds = 0
Dangerous builds = 0
Reading NEB coordinate file(s) ...
Setting up quickmin style minimization ...
  Unit style    : metal
  Current step  : 0
Per MPI rank memory allocation (min/avg/max) = 5.112 | 5.226 | 5.362 Mbytes
Step Temp E_pair E_mol TotEng Press 
       0            0   -796.99042            0   -796.99042    13884.654 
       1 0.00077320095   -796.99042            0   -796.99041    13884.664 
       2 0.0038675889   -796.99043            0   -796.99037    13884.596 
       3  0.010283553   -796.99045            0   -796.99029     13884.51 
       4  0.021950338    -796.9905            0   -796.99014    13884.588 
       5  0.043718416   -796.99059            0   -796.98988    13885.215 
       6  0.088266438   -796.99079            0   -796.98935    13887.104 
       7   0.18322634   -796.99116            0   -796.98817    13891.284 
       8   0.36152881   -796.99173            0   -796.98584    13898.419 
       9   0.66388185    -796.9925            0   -796.98169    13908.724 
      10    1.1486318   -796.99349            0   -796.97478    13923.273 
      11    1.8551034    -796.9947            0   -796.96449    13942.586 
      12    2.6038064   -796.99609            0   -796.95368    13964.001 
      13   0.89510061   -796.99682            0   -796.98224     13947.19 
      14 0.00043789984   -796.99682            0   -796.99681    13935.324 
      15 0.0012281737   -796.99683            0   -796.99681     13935.43 
      16 0.0025768872   -796.99686            0   -796.99681    13935.648 
      17 0.0047482247    -796.9969            0   -796.99682        13936 
      18 0.0083618577   -796.99695            0   -796.99682     13936.53 
      19  0.014751539   -796.99704            0    -796.9968    13937.308 
      20  0.025778775   -796.99715            0   -796.99673     13938.42 
      21  0.040066647    -796.9973            0   -796.99665    13939.836 
      22  0.053208987   -796.99747            0    -796.9966    13941.422 
      23  0.066316353   -796.99766            0   -796.99658     13943.17 
      24  0.080860229   -796.99787            0   -796.99655      13945.1 
      25  0.097133199    -796.9981            0   -796.99651    13947.219 
      26   0.11523859   -796.99834            0   -796.99647    13949.529 
      27    0.1352808   -796.99861            0   -796.99641    13952.032 
      28   0.15737049    -796.9989            0   -796.99634    13954.728 
      29   0.18162425    -796.9992            0   -796.99624    13957.618 
      30   0.20816464   -796.99953            0   -796.99614    13960.704 
      31   0.23711967   -796.99987            0     -796.996    13963.986 
      32   0.26862471   -797.00022            0   -796.99585    13967.464 
      33    0.3028235    -797.0006            0   -796.99567     13971.14 
      34   0.33987009   -797.00098            0   -796.99545    13975.013 
      35    0.3799329   -797.00138            0   -796.99519    13979.085 
      36   0.42319778    -797.0018            0    -796.9949    13983.355 
      37   0.46987517   -797.00222            0   -796.99457     13987.82 
      38   0.52020702   -797.00267            0   -796.99419    13992.481 
      39   0.57448272   -797.00312            0   -796.99377    13997.339 
      40   0.63304521   -797.00359            0   -796.99328    14002.396 
      41   0.69630944   -797.00407            0   -796.99273    14007.647 
      42   0.76477475   -797.00456            0    -796.9921    14013.103 
      43   0.83895651   -797.00505            0   -796.99139    14018.727 
      44    0.9165401   -797.00555            0   -796.99063    14024.621 
      45   0.92210271   -797.00605            0   -796.99103    14028.957 
      46   0.16484377   -797.00623            0   -797.00354    14021.544 
      47 0.00012743675   -797.00623            0   -797.00623    14019.359 
      48 0.00036606815   -797.00623            0   -797.00623     14019.38 
      49 0.00078339063   -797.00624            0   -797.00623    14019.425 
      50 0.0014855638   -797.00626            0   -797.00623    14019.505 
      51 0.0026948842   -797.00628            0   -797.00624    14019.641 
      52 0.0047687044   -797.00631            0   -797.00623    14019.865 
      53 0.0078552452   -797.00635            0   -797.00622    14020.206 
      54  0.011267569    -797.0064            0   -797.00622    14020.659 
      55  0.014525097   -797.00645            0   -797.00622    14021.201 
      56  0.017916713   -797.00651            0   -797.00622    14021.819 
      57  0.021634303   -797.00658            0   -797.00623    14022.507 
      58  0.025715608   -797.00665            0   -797.00624    14023.262 
      59  0.030168524   -797.00673            0   -797.00624    14024.081 
      60  0.034999575   -797.00682            0   -797.00625    14024.964 
      61  0.040216084   -797.00691            0   -797.00625    14025.908 
      62  0.045826305   -797.00701            0   -797.00626    14026.914 
      63  0.051839396   -797.00711            0   -797.00626    14027.981 
      64  0.058265633   -797.00721            0   -797.00626    14029.109 
      65  0.065116437   -797.00732            0   -797.00626    14030.297 
      66  0.072404586   -797.00744            0   -797.00626    14031.543 
      67  0.080144152   -797.00756            0   -797.00625    14032.847 
      68  0.088350882   -797.00768            0   -797.00624    14034.207 
      69  0.097042196   -797.00781            0   -797.00623    14035.622 
      70    0.1062374   -797.00795            0   -797.00622     14037.09 
      71   0.11595819   -797.00809            0    -797.0062    14038.612 
      72   0.12622884   -797.00823            0   -797.00618    14040.185 
      73   0.13707554   -797.00838            0   -797.00615    14041.808 
      74   0.14852734   -797.00853            0   -797.00611    14043.479 
      75   0.16061646   -797.00868            0   -797.00607    14045.197 
      76   0.17337955   -797.00884            0   -797.00602    14046.961 
      77   0.18685513     -797.009            0   -797.00596    14048.769 
      78   0.20108791   -797.00917            0   -797.00589    14050.621 
      79   0.21612143   -797.00933            0   -797.00581    14052.512 
      80   0.23201375    -797.0095            0   -797.00572    14054.437 
      81   0.24878093   -797.00967            0   -797.00562    14056.408 
      82   0.26626902   -797.00984            0   -797.00551    14058.377 
      83   0.27978213   -797.01001            0   -797.00546    14060.417 
      84   0.22009921   -797.01017            0   -797.00659    14060.814 
      85 0.0085970516   -797.01019            0   -797.01005     14058.49 
      86  0.014126108   -797.01023            0      -797.01    14058.976 
      87  0.016119036   -797.01026            0      -797.01    14059.382 
      88  0.018449259    -797.0103            0      -797.01    14059.822 
      89  0.020952635   -797.01034            0      -797.01    14060.289 
      90  0.023625277   -797.01038            0      -797.01    14060.784 
      91  0.026468934   -797.01043            0      -797.01    14061.305 
      92  0.029486062   -797.01048            0   -797.00999    14061.852 
      93  0.032679355   -797.01052            0   -797.00999    14062.425 
      94  0.036051731   -797.01057            0   -797.00999    14063.023 
      95   0.03960631   -797.01063            0   -797.00998    14063.644 
      96  0.043346438   -797.01068            0   -797.00998    14064.289 
      97  0.047275614   -797.01074            0   -797.00997    14064.958 
      98   0.05139759    -797.0108            0   -797.00996    14065.649 
      99  0.055716145   -797.01086            0   -797.00995    14066.361 
     100  0.060235208   -797.01092            0   -797.00994    14067.095 
     101  0.064958087   -797.01098            0   -797.00992    14067.848 
     102  0.069885361   -797.01105            0   -797.00991     14068.62 
     103  0.075001639   -797.01111            0   -797.00989     14069.41 
     104  0.080195039   -797.01118            0   -797.00987    14070.217 
     105  0.084710196   -797.01125            0   -797.00987    14071.016 
     106  0.083337985   -797.01131            0   -797.00996    14071.738 
     107  0.052183496   -797.01137            0   -797.01052    14071.861 
     108 0.0075782726   -797.01139            0   -797.01126    14071.491 
     109 0.0081778989   -797.01141            0   -797.01127     14071.71 
     110 0.0094951501   -797.01143            0   -797.01127    14071.956 
     111   0.01091737   -797.01145            0   -797.01127    14072.219 
     112  0.012441196   -797.01147            0   -797.01127    14072.499 
     113  0.014067085    -797.0115            0   -797.01127    14072.796 
     114  0.015795617   -797.01153            0   -797.01127     14073.11 
     115  0.017627402   -797.01156            0   -797.01127     14073.44 
     116  0.019563068   -797.01159            0   -797.01127    14073.785 
     117  0.021603263   -797.01162            0   -797.01127    14074.146 
     118  0.023748638   -797.01165            0   -797.01126    14074.523 
     119  0.025999857   -797.01169            0   -797.01126    14074.914 
     120  0.028357576   -797.01172            0   -797.01126    14075.319 
     121  0.030822438   -797.01176            0   -797.01125    14075.738 
     122  0.033395062   -797.01179            0   -797.01125     14076.17 
     123  0.036076038   -797.01183            0   -797.01124    14076.615 
     124  0.038865886   -797.01187            0   -797.01124    14077.073 
     125  0.041765123   -797.01191            0   -797.01123    14077.543 
     126  0.044774065   -797.01195            0   -797.01122    14078.024 
     127  0.047893005     -797.012            0   -797.01122    14078.516 
     128  0.051121656   -797.01204            0   -797.01121    14079.018 
     129  0.054457879   -797.01208            0    -797.0112    14079.531 
     130  0.057884958   -797.01213            0   -797.01119    14080.053 
     131  0.061270875   -797.01218            0   -797.01118     14080.58 
     132  0.063450526   -797.01222            0   -797.01119    14081.093 
     133  0.054821402   -797.01226            0   -797.01137     14081.42 
     134  0.014046706   -797.01229            0   -797.01206    14081.097 
     135 0.0017294821   -797.01229            0   -797.01226    14081.004 
     136  0.002614128    -797.0123            0   -797.01226    14081.104 
     137 0.0032651471   -797.01231            0   -797.01226    14081.212 
     138 0.0039168525   -797.01232            0   -797.01226    14081.329 
     139 0.0046250469   -797.01233            0   -797.01226    14081.457 
     140 0.0053918624   -797.01234            0   -797.01226    14081.596 
     141 0.0062172078   -797.01236            0   -797.01226    14081.745 
     142 0.0071009637   -797.01237            0   -797.01226    14081.903 
     143 0.0080429915   -797.01239            0   -797.01226    14082.072 
     144 0.0090431296    -797.0124            0   -797.01226     14082.25 
     145  0.010101191   -797.01242            0   -797.01225    14082.438 
     146   0.01121696   -797.01244            0   -797.01225    14082.635 
     147  0.012390187   -797.01245            0   -797.01225    14082.841 
     148  0.013620589   -797.01247            0   -797.01225    14083.056 
     149  0.014907839   -797.01249            0   -797.01225     14083.28 
     150  0.016251568   -797.01251            0   -797.01225    14083.512 
     151  0.017651358   -797.01253            0   -797.01225    14083.752 
     152  0.019106733   -797.01256            0   -797.01224        14084 
     153  0.020617156   -797.01258            0   -797.01224    14084.256 
     154  0.022182025    -797.0126            0   -797.01224     14084.52 
     155  0.023800665   -797.01262            0   -797.01224     14084.79 
     156  0.025472324   -797.01265            0   -797.01223    14085.067 
     157  0.027196152   -797.01267            0   -797.01223    14085.351 
     158  0.028971192    -797.0127            0   -797.01223    14085.642 
     159   0.03079641   -797.01272            0   -797.01222    14085.938 
     160  0.032670644   -797.01275            0   -797.01222     14086.24 
     161   0.03459259   -797.01278            0   -797.01221    14086.547 
     162  0.036560816    -797.0128            0   -797.01221    14086.859 
     163  0.038573744   -797.01283            0    -797.0122    14087.176 
     164  0.040629458   -797.01286            0   -797.01219    14087.497 
     165  0.042724848   -797.01288            0   -797.01219    14087.822 
     166  0.044842426   -797.01291            0   -797.01218    14088.154 
     167  0.046799436   -797.01294            0   -797.01218     14088.47 
     168  0.046202217   -797.01297            0   -797.01222    14088.805 
     169  0.023662044   -797.01299            0    -797.0126    14088.594 
     170 0.00031755143   -797.01299            0   -797.01299    14088.331 
     171 0.00059284697   -797.01299            0   -797.01298    14088.391 
     172 0.00099929435     -797.013            0   -797.01298    14088.454 
     173 0.0013649914     -797.013            0   -797.01298    14088.513 
     174 0.0016855228   -797.01301            0   -797.01298    14088.571 
     175 0.0020244011   -797.01301            0   -797.01298    14088.633 
     176 0.0023929232   -797.01302            0   -797.01298      14088.7 
     177 0.0027914923   -797.01302            0   -797.01298    14088.773 
     178 0.0032198709   -797.01303            0   -797.01298     14088.85 
     179 0.0036777821   -797.01304            0   -797.01298    14088.934 
     180 0.0041649222   -797.01304            0   -797.01298    14089.022 
     181 0.0046809593   -797.01305            0   -797.01298    14089.116 
     182 0.0052255339   -797.01306            0   -797.01298    14089.214 
     183 0.0057982642   -797.01307            0   -797.01297    14089.317 
     184  0.006398731   -797.01308            0   -797.01297    14089.426 
     185 0.0070264853   -797.01309            0   -797.01297    14089.539 
     186 0.0076810455    -797.0131            0   -797.01297    14089.656 
     187  0.008361896   -797.01311            0   -797.01297    14089.779 
     188 0.0090684868   -797.01312            0   -797.01297    14089.905 
     189 0.0098002269   -797.01313            0   -797.01297    14090.036 
     190  0.010556489   -797.01314            0   -797.01297    14090.172 
     191  0.011336603   -797.01315            0   -797.01297    14090.311 
     192  0.012139859   -797.01317            0   -797.01297    14090.454 
     193  0.012965501   -797.01318            0   -797.01297    14090.601 
     194  0.013812726   -797.01319            0   -797.01296    14090.751 
     195  0.014680683    -797.0132            0   -797.01296    14090.906 
     196   0.01556847   -797.01322            0   -797.01296    14091.063 
     197  0.016475224   -797.01323            0   -797.01296    14091.224 
     198  0.017399914   -797.01324            0   -797.01296    14091.388 
     199  0.018341472   -797.01326            0   -797.01296    14091.555 
     200  0.019298727   -797.01327            0   -797.01296    14091.724 
     201  0.020270563   -797.01328            0   -797.01295    14091.897 
     202  0.021255314    -797.0133            0   -797.01295    14092.072 
     203  0.022250539   -797.01331            0   -797.01295    14092.249 
     204  0.023230319   -797.01333            0   -797.01295    14092.429 
     205  0.023908361   -797.01334            0   -797.01295    14092.599 
     206  0.020661095   -797.01336            0   -797.01302    14092.727 
     207 0.0034389768   -797.01336            0    -797.0133    14092.535 
     208 0.00022586545   -797.01336            0   -797.01336     14092.51 
     209 0.00036546274   -797.01336            0   -797.01336    14092.533 
     210 0.00051554284   -797.01336            0   -797.01336    14092.558 
     211 0.00066315932   -797.01337            0   -797.01335    14092.586 
     212 0.00081990877   -797.01337            0   -797.01335    14092.617 
     213 0.00099163831   -797.01337            0   -797.01335     14092.65 
     214 0.0011791336   -797.01337            0   -797.01335    14092.687 
     215 0.0013822804   -797.01338            0   -797.01335    14092.727 
     216 0.0016008885   -797.01338            0   -797.01335     14092.77 
     217 0.0018347462   -797.01338            0   -797.01335    14092.815 
     218 0.0020836234   -797.01339            0   -797.01335    14092.864 
     219 0.0023472714   -797.01339            0   -797.01335    14092.916 
     220 0.0026254238   -797.01339            0   -797.01335    14092.971 
     221 0.0029177951    -797.0134            0   -797.01335    14093.029 
     222 0.0032240812    -797.0134            0   -797.01335     14093.09 
     223  0.003543959   -797.01341            0   -797.01335    14093.153 
     224 0.0038770858   -797.01341            0   -797.01335    14093.219 
     225 0.0042230993   -797.01342            0   -797.01335    14093.288 
     226 0.0045816174   -797.01342            0   -797.01335    14093.359 
     227 0.0049522376   -797.01343            0   -797.01335    14093.434 
     228 0.0053345369   -797.01343            0   -797.01335     14093.51 
     229  0.005728071   -797.01344            0   -797.01335    14093.589 
     230 0.0061323756   -797.01345            0   -797.01335    14093.671 
     231 0.0065469631   -797.01345            0   -797.01335    14093.755 
     232 0.0069713187   -797.01346            0   -797.01335    14093.841 
     233 0.0074049123   -797.01346            0   -797.01334    14093.929 
     234 0.0078471907   -797.01347            0   -797.01334    14094.019 
     235  0.008297575   -797.01348            0   -797.01334    14094.112 
     236 0.0087554699   -797.01348            0   -797.01334    14094.206 
     237 0.0092202521   -797.01349            0   -797.01334    14094.303 
     238  0.009691274    -797.0135            0   -797.01334    14094.401 
     239  0.010167864   -797.01351            0   -797.01334    14094.501 
     240  0.010649324   -797.01351            0   -797.01334    14094.602 
     241  0.011134914   -797.01352            0   -797.01334    14094.706 
     242  0.011623709   -797.01353            0   -797.01334     14094.81 
     243  0.012112774   -797.01353            0   -797.01334    14094.917 
     244   0.01257413   -797.01354            0   -797.01334    14095.023 
     245  0.012631067   -797.01355            0   -797.01334    14095.125 
     246 0.0083342526   -797.01355            0   -797.01342    14095.148 
     247 0.00027162055   -797.01355            0   -797.01355    14095.054 
     248 0.00054593306   -797.01356            0   -797.01355    14095.078 
     249 0.00065383627   -797.01356            0   -797.01355    14095.101 
     250 0.00076256845   -797.01356            0   -797.01355    14095.126 
     251 0.00087921139   -797.01356            0   -797.01355    14095.152 
     252 0.0010036149   -797.01356            0   -797.01355    14095.181 
     253  0.001135629   -797.01356            0   -797.01355    14095.211 
     254 0.0012750932   -797.01357            0   -797.01355    14095.243 
     255 0.0014218366   -797.01357            0   -797.01355    14095.277 
     256 0.0015756776   -797.01357            0   -797.01355    14095.313 
     257 0.0017364236   -797.01357            0   -797.01355     14095.35 
     258 0.0019038731   -797.01358            0   -797.01355    14095.389 
     259 0.0020778117   -797.01358            0   -797.01355     14095.43 
     260 0.0022580144   -797.01358            0   -797.01354    14095.473 
     261 0.0024442462   -797.01358            0   -797.01354    14095.517 
     262 0.0026362621   -797.01359            0   -797.01354    14095.563 
     263 0.0028338049   -797.01359            0   -797.01354     14095.61 
     264 0.0030366076   -797.01359            0   -797.01354    14095.659 
     265 0.0032443926    -797.0136            0   -797.01354    14095.709 
     266 0.0034568717    -797.0136            0   -797.01354    14095.761 
     267 0.0036737459    -797.0136            0   -797.01354    14095.815 
     268 0.0038947064   -797.01361            0   -797.01354    14095.869 
     269 0.0041194325   -797.01361            0   -797.01354    14095.925 
     270 0.0043475961   -797.01361            0   -797.01354    14095.982 
     271 0.0045788469   -797.01362            0   -797.01354    14096.041 
     272 0.0048127994   -797.01362            0   -797.01354    14096.101 
     273 0.0050487485   -797.01362            0   -797.01354    14096.161 
     274 0.0052835956   -797.01363            0   -797.01354    14096.223 
     275 0.0054905416   -797.01363            0   -797.01354    14096.286 
     276 0.0054110318   -797.01364            0   -797.01355    14096.344 
     277 0.0032935919   -797.01364            0   -797.01359    14096.362 
     278 0.00021216393   -797.01364            0   -797.01364    14096.331 
     279 0.00035068371   -797.01364            0   -797.01363    14096.348 
     280 0.00041087186   -797.01364            0   -797.01363    14096.364 
     281 0.00047689764   -797.01364            0   -797.01363    14096.381 
     282 0.00054752646   -797.01364            0   -797.01363      14096.4 
     283 0.00062266094   -797.01364            0   -797.01363     14096.42 
     284 0.00070220124   -797.01365            0   -797.01363    14096.442 
     285 0.0007860413   -797.01365            0   -797.01363    14096.465 
     286 0.00087406831   -797.01365            0   -797.01363    14096.489 
     287 0.00096616289   -797.01365            0   -797.01363    14096.514 
     288 0.0010621991   -797.01365            0   -797.01363     14096.54 
     289 0.0011620444   -797.01365            0   -797.01363    14096.568 
     290 0.0012655599   -797.01366            0   -797.01363    14096.597 
     291 0.0013726003   -797.01366            0   -797.01363    14096.627 
     292 0.0014830138   -797.01366            0   -797.01363    14096.658 
     293 0.0015966427   -797.01366            0   -797.01363     14096.69 
     294 0.0017133228   -797.01366            0   -797.01363    14096.723 
     295 0.0018328835   -797.01366            0   -797.01363    14096.758 
     296 0.0019551483   -797.01367            0   -797.01363    14096.793 
     297  0.002079935   -797.01367            0   -797.01363     14096.83 
     298 0.0022070547   -797.01367            0   -797.01363    14096.867 
     299 0.0023363134   -797.01367            0   -797.01363    14096.906 
     300 0.0024675063   -797.01367            0   -797.01363    14096.945 
     301 0.0026004129   -797.01368            0   -797.01363    14096.986 
     302 0.0027346851   -797.01368            0   -797.01363    14097.027 
     303  0.002869196   -797.01368            0   -797.01363    14097.069 
     304 0.0029960315   -797.01368            0   -797.01364    14097.112 
     305 0.0030486037   -797.01369            0   -797.01364    14097.154 
     306 0.0025094092   -797.01369            0   -797.01365    14097.184 
     307 0.00055976976   -797.01369            0   -797.01368    14097.176 
     308 0.0001125591   -797.01369            0   -797.01369    14097.177 
     309 0.00015598749   -797.01369            0   -797.01369    14097.186 
     310 0.00018913777   -797.01369            0   -797.01369    14097.197 
     311 0.00022439883   -797.01369            0   -797.01369    14097.208 
     312 0.00026250812   -797.01369            0   -797.01369     14097.22 
     313 0.00030341722   -797.01369            0   -797.01369    14097.233 
     314 0.00034706922   -797.01369            0   -797.01369    14097.247 
     315 0.00039340293   -797.01369            0   -797.01369    14097.262 
     316 0.00044235291    -797.0137            0   -797.01369    14097.277 
     317 0.00049384948    -797.0137            0   -797.01369    14097.294 
     318 0.00054781882    -797.0137            0   -797.01369    14097.312 
     319 0.00060418299    -797.0137            0   -797.01369     14097.33 
     320 0.00066285995    -797.0137            0   -797.01369     14097.35 
     321 0.00072376366    -797.0137            0   -797.01369     14097.37 
     322 0.00078680409    -797.0137            0   -797.01369    14097.391 
     323 0.00085188732    -797.0137            0   -797.01369    14097.413 
     324 0.00091891555    -797.0137            0   -797.01369    14097.436 
     325 0.00098778715    -797.0137            0   -797.01369     14097.46 
     326 0.0010583968   -797.01371            0   -797.01369    14097.484 
     327 0.0011306355   -797.01371            0   -797.01369    14097.509 
     328 0.0012043905   -797.01371            0   -797.01369    14097.535 
     329 0.0012795458   -797.01371            0   -797.01369    14097.562 
     330 0.0013559816   -797.01371            0   -797.01369    14097.589 
     331 0.0014335749   -797.01371            0   -797.01369    14097.618 
     332 0.0015121993   -797.01371            0   -797.01369    14097.647 
     333 0.0015917252   -797.01372            0   -797.01369    14097.676 
     334 0.0016720196   -797.01372            0   -797.01369    14097.706 
     335 0.0017529459   -797.01372            0   -797.01369    14097.737 
     336 0.0018343644   -797.01372            0   -797.01369    14097.769 
     337 0.0019161114   -797.01372            0   -797.01369    14097.801 
     338 0.0019978646   -797.01372            0   -797.01369    14097.834 
     339 0.0020773375   -797.01372            0   -797.01369    14097.867 
     340 0.0021289011   -797.01373            0   -797.01369      14097.9 
     341  0.001857459   -797.01373            0    -797.0137    14097.927 
     342 0.00037557741   -797.01373            0   -797.01372    14097.921 
     343 1.8106221e-05   -797.01373            0   -797.01373    14097.919 
     344 3.0812923e-05   -797.01373            0   -797.01373    14097.922 
     345 4.5660046e-05   -797.01373            0   -797.01373    14097.927 
     346 6.0198523e-05   -797.01373            0   -797.01373    14097.932 
     347 7.5313415e-05   -797.01373            0   -797.01373    14097.938 
     348 9.183792e-05   -797.01373            0   -797.01373    14097.945 
     349 0.00010991688   -797.01373            0   -797.01373    14097.952 
     350 0.00012953623   -797.01373            0   -797.01373     14097.96 
     351 0.0001506676   -797.01373            0   -797.01373    14097.968 
     352 0.00017327989   -797.01373            0   -797.01373    14097.978 
     353 0.00019733955   -797.01373            0   -797.01373    14097.988 
     354 0.00022281063   -797.01373            0   -797.01373    14097.998 
     355 0.00024965481   -797.01373            0   -797.01373    14098.009 
     356 0.00027783143   -797.01373            0   -797.01373    14098.021 
     357 0.00030729749   -797.01373            0   -797.01373    14098.033 
     358 0.00033800774   -797.01373            0   -797.01373    14098.046 
     359 0.00036991468   -797.01373            0   -797.01373     14098.06 
     360 0.0004029686   -797.01374            0   -797.01373    14098.074 
     361 0.00043711758   -797.01374            0   -797.01373    14098.089 
     362 0.0004723076   -797.01374            0   -797.01373    14098.104 
     363 0.00050848254   -797.01374            0   -797.01373     14098.12 
     364 0.00054558407   -797.01374            0   -797.01373    14098.136 
     365 0.00058355155   -797.01374            0   -797.01373    14098.153 
     366 0.00062232372   -797.01374            0   -797.01373    14098.171 
     367 0.00066183575   -797.01374            0   -797.01373    14098.189 
     368 0.00070202276   -797.01374            0   -797.01373    14098.207 
     369 0.00074281545   -797.01374            0   -797.01373    14098.226 
     370 0.00078414688   -797.01374            0   -797.01373    14098.246 
     371 0.0008259415   -797.01374            0   -797.01373    14098.266 
     372 0.00086813394   -797.01374            0   -797.01373    14098.286 
     373 0.0009106352   -797.01375            0   -797.01373    14098.307 
     374 0.00095339861   -797.01375            0   -797.01373    14098.329 
     375 0.00099628426   -797.01375            0   -797.01373    14098.351 
     376 0.0010393645   -797.01375            0   -797.01373    14098.373 
     377 0.0010822931   -797.01375            0   -797.01373    14098.397 
     378 0.0011267162   -797.01375            0   -797.01373    14098.415 
     379 0.0011803189   -797.01375            0   -797.01373    14098.455 
     380 0.0013733255   -797.01375            0   -797.01373    14098.429 
     381 0.0024804181   -797.01376            0   -797.01372    14098.596 
     382 0.00053882681   -797.01375            0   -797.01375     14098.51 
     383 0.00013972375   -797.01375            0   -797.01375     14098.48 
     384 6.965159e-05   -797.01375            0   -797.01375    14098.482 
     385 8.0846241e-05   -797.01375            0   -797.01375    14098.489 
     386 9.2916148e-05   -797.01375            0   -797.01375    14098.495 
     387 0.00010575684   -797.01375            0   -797.01375    14098.502 
     388 0.00011934224   -797.01375            0   -797.01375    14098.509 
     389 0.00013365091   -797.01375            0   -797.01375    14098.517 
     390   0.00014866   -797.01376            0   -797.01375    14098.525 
     391 0.00016434539   -797.01376            0   -797.01375    14098.534 
     392 0.0001806817   -797.01376            0   -797.01375    14098.543 
     393 0.0001976423   -797.01376            0   -797.01375    14098.552 
     394 0.00021519938   -797.01376            0   -797.01375    14098.562 
     395 0.0002333239   -797.01376            0   -797.01375    14098.572 
     396 0.0002519857   -797.01376            0   -797.01375    14098.583 
     397 0.00027115341   -797.01376            0   -797.01375    14098.594 
     398 0.00029079465   -797.01376            0   -797.01375    14098.605 
     399 0.00031087582   -797.01376            0   -797.01375    14098.617 
     400 0.00033136244   -797.01376            0   -797.01375    14098.629 
     401 0.00035221872   -797.01376            0   -797.01375    14098.642 
     402 0.00037340833   -797.01376            0   -797.01375    14098.655 
     403 0.00039489268   -797.01376            0   -797.01375    14098.668 
     404 0.00041663331   -797.01376            0   -797.01375    14098.682 
     405 0.00043857682   -797.01376            0   -797.01375    14098.696 
     406 0.00046062073   -797.01376            0   -797.01376    14098.709 
     407 0.00048215829   -797.01376            0   -797.01376    14098.726 
     408 0.00049870342   -797.01376            0   -797.01376    14098.735 
     409 0.00047242528   -797.01376            0   -797.01376    14098.765 
     410 0.00023479808   -797.01377            0   -797.01376    14098.741 
     411 1.8357187e-05   -797.01376            0   -797.01376    14098.753 
     412 2.799347e-05   -797.01376            0   -797.01376    14098.762 
     413 3.3815971e-05   -797.01377            0   -797.01376    14098.766 
     414 4.0077804e-05   -797.01377            0   -797.01376     14098.77 
     415 4.6846584e-05   -797.01377            0   -797.01376    14098.775 
     416 5.4104117e-05   -797.01377            0   -797.01376     14098.78 
     417 6.1838684e-05   -797.01377            0   -797.01376    14098.785 
     418 7.0037671e-05   -797.01377            0   -797.01376     14098.79 
     419 7.8687623e-05   -797.01377            0   -797.01376    14098.796 
     420 8.7774247e-05   -797.01377            0   -797.01376    14098.802 
     421 9.7282427e-05   -797.01377            0   -797.01377    14098.808 
     422 0.00010719624   -797.01377            0   -797.01377    14098.815 
     423 0.00011749895   -797.01377            0   -797.01377    14098.822 
     424 0.00012817308   -797.01377            0   -797.01377    14098.829 
     425 0.00013920036   -797.01377            0   -797.01377    14098.837 
     426 0.00015056178   -797.01377            0   -797.01377    14098.845 
     427 0.00016223761   -797.01377            0   -797.01377    14098.853 
     428 0.00017420739   -797.01377            0   -797.01377    14098.862 
     429   0.00018645   -797.01377            0   -797.01377    14098.871 
     430 0.00019894361   -797.01377            0   -797.01377     14098.88 
     431 0.00021166578   -797.01377            0   -797.01377     14098.89 
     432 0.00022459338   -797.01377            0   -797.01377      14098.9 
     433 0.00023770273   -797.01377            0   -797.01377     14098.91 
     434 0.00025096949   -797.01377            0   -797.01377     14098.92 
     435 0.00026436883   -797.01377            0   -797.01377    14098.931 
     436 0.0002778752   -797.01377            0   -797.01377    14098.941 
     437 0.00029146283   -797.01377            0   -797.01377    14098.953 
     438 0.00030510386   -797.01377            0   -797.01377    14098.964 
     439 0.0003187675   -797.01377            0   -797.01377    14098.976 
     440 0.00033236069   -797.01377            0   -797.01377    14098.988 
     441 0.00034523401   -797.01377            0   -797.01377    14098.999 
     442  0.000349823   -797.01377            0   -797.01377    14099.014 
     443 0.00027183653   -797.01377            0   -797.01377    14099.015 
     444 3.0237784e-05   -797.01377            0   -797.01377    14099.023 
     445 1.5495281e-05   -797.01377            0   -797.01377    14099.024 
     446 1.8918245e-05   -797.01377            0   -797.01377    14099.026 
     447 2.2444739e-05   -797.01377            0   -797.01377    14099.029 
     448 2.6254324e-05   -797.01377            0   -797.01377    14099.032 
     449 3.0339439e-05   -797.01377            0   -797.01377    14099.036 
     450 3.4693172e-05   -797.01378            0   -797.01377    14099.039 
     451  3.93081e-05   -797.01378            0   -797.01377    14099.043 
     452 4.4176302e-05   -797.01378            0   -797.01377    14099.048 
     453 4.9289363e-05   -797.01378            0   -797.01377    14099.052 
     454 5.4638388e-05   -797.01378            0   -797.01377    14099.057 
     455 6.0214002e-05   -797.01378            0   -797.01377    14099.062 
     456 6.6006368e-05   -797.01378            0   -797.01377    14099.067 
     457 7.2005192e-05   -797.01378            0   -797.01378    14099.072 
     458 7.8199736e-05   -797.01378            0   -797.01378    14099.078 
     459 8.4578823e-05   -797.01378            0   -797.01378    14099.084 
     460 9.1130857e-05   -797.01378            0   -797.01378     14099.09 
     461 9.7843826e-05   -797.01378            0   -797.01378    14099.096 
     462 0.00010470532   -797.01378            0   -797.01378    14099.103 
     463 0.00011170253   -797.01378            0   -797.01378    14099.109 
     464 0.00011882229   -797.01378            0   -797.01378    14099.116 
     465 0.00012605105   -797.01378            0   -797.01378    14099.123 
     466 0.00013337492   -797.01378            0   -797.01378    14099.131 
     467 0.00014077967   -797.01378            0   -797.01378    14099.138 
     468 0.00014825075   -797.01378            0   -797.01378    14099.146 
     469 0.0001557732   -797.01378            0   -797.01378    14099.154 
     470 0.00016333166   -797.01378            0   -797.01378    14099.162 
     471 0.0001709074   -797.01378            0   -797.01378    14099.171 
     472 0.00017845961   -797.01378            0   -797.01378    14099.179 
     473 0.00018569923   -797.01378            0   -797.01378    14099.188 
     474 0.00018967934   -797.01378            0   -797.01378    14099.197 
     475 0.00016064398   -797.01378            0   -797.01378    14099.204 
     476 3.0988503e-05   -797.01378            0   -797.01378    14099.206 
     477 3.3540966e-06   -797.01378            0   -797.01378    14099.207 
     478 5.2738496e-06   -797.01378            0   -797.01378    14099.208 
     479 6.9582023e-06   -797.01378            0   -797.01378     14099.21 
     480 8.6291419e-06   -797.01378            0   -797.01378    14099.211 
     481 1.0449298e-05   -797.01378            0   -797.01378    14099.213 
     482 1.2433503e-05   -797.01378            0   -797.01378    14099.215 
     483 1.4578786e-05   -797.01378            0   -797.01378    14099.218 
     484 1.6881388e-05   -797.01378            0   -797.01378     14099.22 
     485 1.9337234e-05   -797.01378            0   -797.01378    14099.223 
     486 2.194195e-05   -797.01378            0   -797.01378    14099.226 
     487 2.469086e-05   -797.01378            0   -797.01378    14099.229 
     488 2.7578999e-05   -797.01378            0   -797.01378    14099.232 
     489 3.0601111e-05   -797.01378            0   -797.01378    14099.236 
     490 3.375166e-05   -797.01378            0   -797.01378    14099.239 
     491 3.7024831e-05   -797.01378            0   -797.01378    14099.243 
     492 4.0414542e-05   -797.01378            0   -797.01378    14099.247 
     493 4.3914446e-05   -797.01378            0   -797.01378    14099.251 
     494 4.7517943e-05   -797.01378            0   -797.01378    14099.256 
     495 5.1218174e-05   -797.01378            0   -797.01378     14099.26 
     496 5.5008042e-05   -797.01378            0   -797.01378    14099.265 
     497 5.8880215e-05   -797.01378            0   -797.01378     14099.27 
     498 6.2827132e-05   -797.01378            0   -797.01378    14099.275 
     499 6.6841015e-05   -797.01378            0   -797.01378     14099.28 
     500 7.0913871e-05   -797.01378            0   -797.01378    14099.285 
     501 7.5037507e-05   -797.01378            0   -797.01378     14099.29 
     502 7.9203533e-05   -797.01378            0   -797.01378    14099.296 
     503 8.3403376e-05   -797.01378            0   -797.01378    14099.302 
     504 8.7628283e-05   -797.01378            0   -797.01378    14099.308 
     505 9.1869331e-05   -797.01378            0   -797.01378    14099.314 
     506 9.6117443e-05   -797.01378            0   -797.01378     14099.32 
     507 0.00010036323   -797.01378            0   -797.01378    14099.326 
     508 0.00010459692   -797.01378            0   -797.01378    14099.333 
     509 0.0001088022   -797.01378            0   -797.01378    14099.339 
     510 0.0001128907   -797.01379            0   -797.01378    14099.346 
     511 0.00011577802   -797.01379            0   -797.01378    14099.353 
     512 0.00010360975   -797.01379            0   -797.01378    14099.359 
     513 2.2642429e-05   -797.01379            0   -797.01379    14099.361 
     514 3.7486084e-07   -797.01379            0   -797.01379    14099.361 
     515 7.0392689e-07   -797.01379            0   -797.01379    14099.361 
     516 1.2265543e-06   -797.01379            0   -797.01379    14099.362 
     517 1.9031943e-06   -797.01379            0   -797.01379    14099.362 
     518 2.628835e-06   -797.01379            0   -797.01379    14099.363 
     519 3.3965631e-06   -797.01379            0   -797.01379    14099.365 
     520 4.2406783e-06   -797.01379            0   -797.01379    14099.366 
     521 5.172436e-06   -797.01379            0   -797.01379    14099.367 
     522 6.1916877e-06   -797.01379            0   -797.01379    14099.369 
     523 7.2966164e-06   -797.01379            0   -797.01379     14099.37 
     524 8.485181e-06   -797.01379            0   -797.01379    14099.372 
     525 9.7551693e-06   -797.01379            0   -797.01379    14099.374 
     526  1.11042e-05   -797.01379            0   -797.01379    14099.376 
     527 1.2529726e-05   -797.01379            0   -797.01379    14099.378 
     528 1.4029036e-05   -797.01379            0   -797.01379     14099.38 
     529 1.5599258e-05   -797.01379            0   -797.01379    14099.383 
     530 1.7237365e-05   -797.01379            0   -797.01379    14099.385 
     531 1.8940173e-05   -797.01379            0   -797.01379    14099.388 
     532 2.0704352e-05   -797.01379            0   -797.01379    14099.391 
     533 2.2526423e-05   -797.01379            0   -797.01379    14099.394 
     534 2.4402766e-05   -797.01379            0   -797.01379    14099.397 
     535 2.6329624e-05   -797.01379            0   -797.01379      14099.4 
     536 2.8303106e-05   -797.01379            0   -797.01379    14099.403 
     537 3.0319191e-05   -797.01379            0   -797.01379    14099.407 
     538 3.2373735e-05   -797.01379            0   -797.01379     14099.41 
     539 3.4462475e-05   -797.01379            0   -797.01379    14099.414 
     540 3.6581033e-05   -797.01379            0   -797.01379    14099.418 
     541 3.8724923e-05   -797.01379            0   -797.01379    14099.422 
     542 4.0889551e-05   -797.01379            0   -797.01379    14099.425 
     543 4.3070232e-05   -797.01379            0   -797.01379     14099.43 
     544 4.5262177e-05   -797.01379            0   -797.01379    14099.434 
     545 4.7460527e-05   -797.01379            0   -797.01379    14099.438 
     546 4.9660304e-05   -797.01379            0   -797.01379    14099.442 
     547 5.1856549e-05   -797.01379            0   -797.01379    14099.447 
     548 5.4043966e-05   -797.01379            0   -797.01379    14099.451 
     549 5.6217872e-05   -797.01379            0   -797.01379    14099.456 
     550 5.8370353e-05   -797.01379            0   -797.01379    14099.461 
     551 6.0488087e-05   -797.01379            0   -797.01379    14099.465 
     552 6.2347697e-05   -797.01379            0   -797.01379    14099.471 
     553 6.0934558e-05   -797.01379            0   -797.01379    14099.472 
     554 2.8512967e-05   -797.01379            0   -797.01379    14099.485 
     555 1.2255442e-07   -797.01379            0   -797.01379    14099.484 
     556 2.3565825e-07   -797.01379            0   -797.01379    14099.483 
     557 4.4220868e-07   -797.01379            0   -797.01379    14099.482 
     558 7.8658375e-07   -797.01379            0   -797.01379    14099.481 
     559 1.2097543e-06   -797.01379            0   -797.01379     14099.48 
     560 1.6174582e-06   -797.01379            0   -797.01379    14099.481 
     561 2.0384641e-06   -797.01379            0   -797.01379    14099.481 
     562 2.5006709e-06   -797.01379            0   -797.01379    14099.482 
     563 3.0074681e-06   -797.01379            0   -797.01379    14099.483 
     564 3.5579839e-06   -797.01379            0   -797.01379    14099.484 
     565 4.1511157e-06   -797.01379            0   -797.01379    14099.486 
     566 4.7856904e-06   -797.01379            0   -797.01379    14099.487 
     567 5.460449e-06   -797.01379            0   -797.01379    14099.488 
     568 6.1740432e-06   -797.01379            0   -797.01379     14099.49 
     569 6.9250368e-06   -797.01379            0   -797.01379    14099.491 
     570 7.7119081e-06   -797.01379            0   -797.01379    14099.493 
     571 8.5330511e-06   -797.01379            0   -797.01379    14099.495 
     572 9.3867779e-06   -797.01379            0   -797.01379    14099.497 
     573 1.0271321e-05   -797.01379            0   -797.01379    14099.499 
     574 1.1184835e-05   -797.01379            0   -797.01379    14099.501 
     575 1.2125401e-05   -797.01379            0   -797.01379    14099.503 
     576 1.3091024e-05   -797.01379            0   -797.01379    14099.505 
     577 1.4079643e-05   -797.01379            0   -797.01379    14099.507 
     578 1.5089128e-05   -797.01379            0   -797.01379     14099.51 
     579 1.6117282e-05   -797.01379            0   -797.01379    14099.512 
     580 1.716185e-05   -797.01379            0   -797.01379    14099.515 
     581 1.8220518e-05   -797.01379            0   -797.01379    14099.517 
     582 1.9290914e-05   -797.01379            0   -797.01379     14099.52 
     583 2.0370615e-05   -797.01379            0   -797.01379    14099.523 
     584 2.1457149e-05   -797.01379            0   -797.01379    14099.526 
     585 2.2547999e-05   -797.01379            0   -797.01379    14099.529 
     586 2.3640602e-05   -797.01379            0   -797.01379    14099.532 
     587 2.4732362e-05   -797.01379            0   -797.01379    14099.535 
     588 2.5820615e-05   -797.01379            0   -797.01379    14099.538 
     589 2.6902521e-05   -797.01379            0   -797.01379    14099.541 
     590 2.7972898e-05   -797.01379            0   -797.01379    14099.544 
     591 2.8998689e-05   -797.01379            0   -797.01379    14099.548 
     592 2.9555003e-05   -797.01379            0   -797.01379    14099.551 
     593 2.438134e-05   -797.01379            0   -797.01379    14099.553 
     594 2.8604982e-06   -797.01379            0   -797.01379    14099.555 
     595 5.8142269e-07   -797.01379            0   -797.01379    14099.555 
     596 8.3700957e-07   -797.01379            0   -797.01379    14099.556 
     597 1.0674143e-06   -797.01379            0   -797.01379    14099.556 
     598 1.3134717e-06   -797.01379            0   -797.01379    14099.557 
     599 1.583209e-06   -797.01379            0   -797.01379    14099.558 
     600 1.8764242e-06   -797.01379            0   -797.01379    14099.558 
     601 2.1925124e-06   -797.01379            0   -797.01379    14099.559 
     602 2.5308173e-06   -797.01379            0   -797.01379     14099.56 
     603 2.8906311e-06   -797.01379            0   -797.01379    14099.561 
     604 3.2711959e-06   -797.01379            0   -797.01379    14099.562 
     605 3.6717044e-06   -797.01379            0   -797.01379    14099.563 
     606 4.0913008e-06   -797.01379            0   -797.01379    14099.565 
     607 4.5290827e-06   -797.01379            0   -797.01379    14099.566 
     608 4.9841015e-06   -797.01379            0   -797.01379    14099.567 
     609 5.4553645e-06   -797.01379            0   -797.01379    14099.569 
     610 5.9418357e-06   -797.01379            0   -797.01379     14099.57 
     611 6.4424385e-06   -797.01379            0   -797.01379    14099.572 
     612 6.9560555e-06   -797.01379            0   -797.01379    14099.573 
     613 7.4815303e-06   -797.01379            0   -797.01379    14099.575 
     614 8.0176709e-06   -797.01379            0   -797.01379    14099.577 
     615 8.5632495e-06   -797.01379            0   -797.01379    14099.578 
     616 9.1170065e-06   -797.01379            0   -797.01379     14099.58 
     617 9.6776488e-06   -797.01379            0   -797.01379    14099.582 
     618 1.0243858e-05   -797.01379            0   -797.01379    14099.584 
     619 1.0814281e-05   -797.01379            0   -797.01379    14099.586 
     620 1.1387554e-05   -797.01379            0   -797.01379    14099.588 
     621 1.196226e-05   -797.01379            0   -797.01379     14099.59 
     622 1.2537028e-05   -797.01379            0   -797.01379    14099.592 
     623 1.3110304e-05   -797.01379            0   -797.01379    14099.595 
     624 1.3680913e-05   -797.01379            0   -797.01379    14099.597 
     625 1.4246214e-05   -797.01379            0   -797.01379    14099.599 
     626 1.4803608e-05   -797.01379            0   -797.01379    14099.601 
     627 1.5293733e-05   -797.01379            0   -797.01379    14099.605 
     628 1.5057988e-05   -797.01379            0   -797.01379    14099.602 
     629 8.0346013e-06   -797.01379            0   -797.01379    14099.616 
     630 1.164288e-07   -797.01379            0   -797.01379    14099.614 
     631 2.1064981e-07   -797.01379            0   -797.01379    14099.611 
     632 3.5145111e-07   -797.01379            0   -797.01379     14099.61 
     633 4.8217896e-07   -797.01379            0   -797.01379    14099.609 
     634 6.0612046e-07   -797.01379            0   -797.01379    14099.609 
     635 7.4178673e-07   -797.01379            0   -797.01379     14099.61 
     636 8.9045253e-07   -797.01379            0   -797.01379     14099.61 
     637 1.0517024e-06   -797.01379            0   -797.01379    14099.611 
     638 1.2251682e-06   -797.01379            0   -797.01379    14099.612 
     639 1.4104685e-06   -797.01379            0   -797.01379    14099.612 
     640 1.6071944e-06   -797.01379            0   -797.01379    14099.613 
     641 1.8149089e-06   -797.01379            0   -797.01379    14099.614 
     642 2.0331473e-06   -797.01379            0   -797.01379    14099.615 
     643 2.2614182e-06   -797.01379            0   -797.01379    14099.616 
     644 2.4992038e-06   -797.01379            0   -797.01379    14099.616 
     645 2.7459613e-06   -797.01379            0   -797.01379    14099.617 
     646 3.0011233e-06   -797.01379            0   -797.01379    14099.619 
     647 3.2640988e-06   -797.01379            0   -797.01379     14099.62 
     648 3.5342743e-06   -797.01379            0   -797.01379    14099.621 
     649 3.8110145e-06   -797.01379            0   -797.01379    14099.622 
     650 4.0936637e-06   -797.01379            0   -797.01379    14099.623 
     651 4.3815465e-06   -797.01379            0   -797.01379    14099.624 
     652 4.673969e-06   -797.01379            0   -797.01379    14099.626 
     653 4.9702203e-06   -797.01379            0   -797.01379    14099.627 
     654 5.2695729e-06   -797.01379            0   -797.01379    14099.628 
     655 5.5712852e-06   -797.01379            0   -797.01379     14099.63 
     656 5.8746003e-06   -797.01379            0   -797.01379    14099.631 
     657 6.1787524e-06   -797.01379            0   -797.01379    14099.633 
     658 6.4829473e-06   -797.01379            0   -797.01379    14099.634 
     659  6.78636e-06   -797.01379            0   -797.01379    14099.636 
     660 7.0875212e-06   -797.01379            0   -797.01379    14099.638 
     661 7.3793568e-06   -797.01379            0   -797.01379    14099.639 
     662 7.5837802e-06   -797.01379            0   -797.01379    14099.641 
     663 6.8307155e-06   -797.01379            0   -797.01379    14099.642 
     664 1.7969192e-06   -797.01379            0   -797.01379    14099.643 
     665 4.6462348e-08   -797.01379            0   -797.01379    14099.643 
     666 8.6396061e-08   -797.01379            0   -797.01379    14099.643 
     667 1.4427547e-07   -797.01379            0   -797.01379    14099.644 
     668 2.0683849e-07   -797.01379            0   -797.01379    14099.644 
     669 2.7045682e-07   -797.01379            0   -797.01379    14099.644 
     670 3.3989738e-07   -797.01379            0   -797.01379    14099.644 
     671 4.166857e-07   -797.01379            0   -797.01379    14099.645 
     672 5.0079621e-07   -797.01379            0   -797.01379    14099.645 
     673 5.9204029e-07   -797.01379            0   -797.01379    14099.646 
     674 6.9021033e-07   -797.01379            0   -797.01379    14099.646 
     675 7.9508152e-07   -797.01379            0   -797.01379    14099.647 
     676 9.0641193e-07   -797.01379            0   -797.01379    14099.647 
     677 1.023943e-06   -797.01379            0   -797.01379    14099.648 
     678   1.1474e-06   -797.01379            0   -797.01379    14099.649 
     679 1.2764922e-06   -797.01379            0   -797.01379    14099.649 
     680 1.4109139e-06   -797.01379            0   -797.01379     14099.65 
     681 1.5503445e-06   -797.01379            0   -797.01379    14099.651 
     682 1.6944491e-06   -797.01379            0   -797.01379    14099.651 
     683 1.8428793e-06   -797.01379            0   -797.01379    14099.652 
     684 1.9952736e-06   -797.01379            0   -797.01379    14099.653 
     685 2.1512582e-06   -797.01379            0   -797.01379    14099.654 
     686 2.3104474e-06   -797.01379            0   -797.01379    14099.655 
     687 2.4724447e-06   -797.01379            0   -797.01379    14099.656 
     688 2.6368429e-06   -797.01379            0   -797.01379    14099.657 
     689 2.8032257e-06   -797.01379            0   -797.01379    14099.658 
     690 2.9711675e-06   -797.01379            0   -797.01379    14099.659 
     691 3.140235e-06   -797.01379            0   -797.01379     14099.66 
     692 3.3099875e-06   -797.01379            0   -797.01379    14099.661 
     693 3.4799779e-06   -797.01379            0   -797.01379    14099.662 
     694 3.649751e-06   -797.01379            0   -797.01379    14099.663 
     695 3.8188392e-06   -797.01379            0   -797.01379    14099.664 
     696 3.9866126e-06   -797.01379            0   -797.01379    14099.666 
     697 4.1509659e-06   -797.01379            0   -797.01379    14099.667 
     698 4.2903262e-06   -797.01379            0   -797.01379    14099.668 
     699 4.1425096e-06   -797.01379            0   -797.01379    14099.669 
     700 1.8784479e-06   -797.01379            0   -797.01379     14099.67 
     701 2.5298758e-08   -797.01379            0   -797.01379     14099.67 
     702 4.9205194e-08   -797.01379            0   -797.01379     14099.67 
     703 8.8087043e-08   -797.01379            0   -797.01379    14099.671 
     704 1.2873671e-07   -797.01379            0   -797.01379    14099.671 
     705 1.6648547e-07   -797.01379            0   -797.01379    14099.671 
     706 2.0708054e-07   -797.01379            0   -797.01379    14099.671 
     707 2.5177795e-07   -797.01379            0   -797.01379    14099.672 
     708 3.0052919e-07   -797.01379            0   -797.01379    14099.672 
     709 3.5321854e-07   -797.01379            0   -797.01379    14099.672 
     710 4.0972062e-07   -797.01379            0   -797.01379    14099.673 
     711 4.6989993e-07   -797.01379            0   -797.01379    14099.673 
     712 5.3361116e-07   -797.01379            0   -797.01379    14099.673 
     713 6.0069947e-07   -797.01379            0   -797.01379    14099.674 
     714 6.7100078e-07   -797.01379            0   -797.01379    14099.674 
     715 7.4434203e-07   -797.01379            0   -797.01379    14099.675 
     716 8.2054153e-07   -797.01379            0   -797.01379    14099.675 
     717 8.994093e-07   -797.01379            0   -797.01379    14099.676 
     718 9.8074739e-07   -797.01379            0   -797.01379    14099.677 
     719 1.0643503e-06   -797.01379            0   -797.01379    14099.677 
     720 1.1500054e-06   -797.01379            0   -797.01379    14099.678 
     721 1.2374931e-06   -797.01379            0   -797.01379    14099.678 
     722 1.3265878e-06   -797.01379            0   -797.01379    14099.679 
     723 1.4170576e-06   -797.01379            0   -797.01379     14099.68 
     724 1.5086654e-06   -797.01379            0   -797.01379    14099.681 
     725 1.6011692e-06   -797.01379            0   -797.01379    14099.681 
     726 1.6943221e-06   -797.01379            0   -797.01379    14099.682 
     727 1.7878738e-06   -797.01379            0   -797.01379    14099.683 
     728 1.8815699e-06   -797.01379            0   -797.01379    14099.684 
     729 1.975154e-06   -797.01379            0   -797.01379    14099.685 
     730 2.0683649e-06   -797.01379            0   -797.01379    14099.686 
     731 2.1609456e-06   -797.01379            0   -797.01379    14099.686 
     732 2.2526207e-06   -797.01379            0   -797.01379    14099.687 
     733 2.3431408e-06   -797.01379            0   -797.01379    14099.688 
     734 2.4319364e-06   -797.01379            0   -797.01379    14099.689 
     735 2.5159011e-06   -797.01379            0   -797.01379     14099.69 
     736 2.5471869e-06   -797.01379            0   -797.01379    14099.691 
     737 1.9266024e-06   -797.01379            0   -797.01379    14099.691 
     738 1.0971398e-07   -797.01379            0   -797.01379    14099.692 
     739 1.335477e-07   -797.01379            0   -797.01379    14099.692 
     740 1.5952261e-07   -797.01379            0   -797.01379    14099.693 
     741 1.8759603e-07   -797.01379            0   -797.01379    14099.693 
     742 2.1769786e-07   -797.01379            0   -797.01379    14099.693 
     743 2.4975395e-07   -797.01379            0   -797.01379    14099.693 
     744 2.8368354e-07   -797.01379            0   -797.01379    14099.694 
     745 3.1940063e-07   -797.01379            0   -797.01379    14099.694 
     746 3.5681418e-07   -797.01379            0   -797.01379    14099.694 
     747 3.9582819e-07   -797.01379            0   -797.01379    14099.695 
     748 4.3634192e-07   -797.01379            0   -797.01379    14099.695 
     749 4.782502e-07   -797.01379            0   -797.01379    14099.696 
     750 5.2144357e-07   -797.01379            0   -797.01379    14099.696 
     751 5.6580844e-07   -797.01379            0   -797.01379    14099.696 
     752 6.1122743e-07   -797.01379            0   -797.01379    14099.697 
     753 6.5757948e-07   -797.01379            0   -797.01379    14099.697 
     754 7.0474033e-07   -797.01379            0   -797.01379    14099.698 
     755 7.5258213e-07   -797.01379            0   -797.01379    14099.698 
     756 8.0097416e-07   -797.01379            0   -797.01379    14099.699 
     757 8.4977737e-07   -797.01379            0   -797.01379    14099.699 
     758 8.9882651e-07   -797.01379            0   -797.01379      14099.7 
     759 9.4775877e-07   -797.01379            0   -797.01379    14099.701 
     760 9.9479873e-07   -797.01379            0   -797.01379    14099.701 
     761 1.0262908e-06   -797.01379            0   -797.01379    14099.702 
     762 9.3535431e-07   -797.01379            0   -797.01379    14099.702 
     763 3.6644074e-07   -797.01379            0   -797.01379    14099.703 
     764 3.0627002e-08   -797.01379            0   -797.01379    14099.703 
     765 5.2001302e-08   -797.01379            0   -797.01379    14099.703 
     766 6.6701685e-08   -797.01379            0   -797.01379    14099.703 
     767 8.1617682e-08   -797.01379            0   -797.01379    14099.703 
     768 9.7924814e-08   -797.01379            0   -797.01379    14099.703 
     769 1.1558554e-07   -797.01379            0   -797.01379    14099.704 
     770 1.3455479e-07   -797.01379            0   -797.01379    14099.704 
     771 1.5478387e-07   -797.01379            0   -797.01379    14099.704 
     772 1.7622053e-07   -797.01379            0   -797.01379    14099.704 
     773 1.9880904e-07   -797.01379            0   -797.01379    14099.705 
     774 2.2249034e-07   -797.01379            0   -797.01379    14099.705 
     775 2.4720213e-07   -797.01379            0   -797.01379    14099.705 
     776 2.7287903e-07   -797.01379            0   -797.01379    14099.706 
     777 2.9945271e-07   -797.01379            0   -797.01379    14099.706 
     778 3.2685203e-07   -797.01379            0   -797.01379    14099.706 
     779 3.550032e-07   -797.01379            0   -797.01379    14099.707 
     780 3.8382995e-07   -797.01379            0   -797.01379    14099.707 
     781 4.1325365e-07   -797.01379            0   -797.01379    14099.707 
     782 4.4319356e-07   -797.01379            0   -797.01379    14099.708 
     783 4.7356694e-07   -797.01379            0   -797.01379    14099.708 
     784 5.0428929e-07   -797.01379            0   -797.01379    14099.709 
     785 5.3527449e-07   -797.01379            0   -797.01379    14099.709 
     786 5.6643499e-07   -797.01379            0   -797.01379    14099.709 
     787 5.9768188e-07   -797.01379            0   -797.01379     14099.71 
     788 6.2892352e-07   -797.01379            0   -797.01379     14099.71 
     789 6.6005422e-07   -797.01379            0   -797.01379    14099.711 
     790 6.9083888e-07   -797.01379            0   -797.01379    14099.711 
     791 7.1974989e-07   -797.01379            0   -797.01379    14099.712 
     792 7.3108525e-07   -797.01379            0   -797.01379    14099.712 
     793 5.7817532e-07   -797.01379            0   -797.01379    14099.713 
     794 7.8388507e-08   -797.01379            0   -797.01379    14099.713 
     795 2.850239e-08   -797.01379            0   -797.01379    14099.713 
     796 3.7538844e-08   -797.01379            0   -797.01379    14099.713 
     797 4.619951e-08   -797.01379            0   -797.01379    14099.713 
     798 5.5681423e-08   -797.01379            0   -797.01379    14099.713 
     799 6.5971332e-08   -797.01379            0   -797.01379    14099.714 
     800 7.7042188e-08   -797.01379            0   -797.01379    14099.714 
     801 8.8864785e-08   -797.01379            0   -797.01379    14099.714 
     802 1.0140773e-07   -797.01379            0   -797.01379    14099.714 
     803 1.1463752e-07   -797.01379            0   -797.01379    14099.714 
     804 1.285186e-07   -797.01379            0   -797.01379    14099.715 
     805 1.4301347e-07   -797.01379            0   -797.01379    14099.715 
     806 1.5808275e-07   -797.01379            0   -797.01379    14099.715 
     807 1.7368526e-07   -797.01379            0   -797.01379    14099.715 
     808 1.8977812e-07   -797.01379            0   -797.01379    14099.716 
     809 2.0631689e-07   -797.01379            0   -797.01379    14099.716 
     810 2.2325558e-07   -797.01379            0   -797.01379    14099.716 
     811 2.4054684e-07   -797.01379            0   -797.01379    14099.716 
     812 2.5814203e-07   -797.01379            0   -797.01379    14099.717 
     813 2.7599074e-07   -797.01379            0   -797.01379    14099.717 
     814 2.940426e-07   -797.01379            0   -797.01379    14099.717 
     815 3.1224593e-07   -797.01379            0   -797.01379    14099.718 
     816  3.30548e-07   -797.01379            0   -797.01379    14099.718 
     817 3.4889525e-07   -797.01379            0   -797.01379    14099.718 
     818 3.6722977e-07   -797.01379            0   -797.01379    14099.719 
     819 3.8546661e-07   -797.01379            0   -797.01379    14099.719 
     820 4.0325981e-07   -797.01379            0   -797.01379    14099.719 
     821 4.1764461e-07   -797.01379            0   -797.01379     14099.72 
     822 3.9871711e-07   -797.01379            0   -797.01379     14099.72 
     823 1.8286025e-07   -797.01379            0   -797.01379     14099.72 
     824 6.3192289e-09   -797.01379            0   -797.01379    14099.721 
     825 1.230351e-08   -797.01379            0   -797.01379    14099.721 
     826 1.8071924e-08   -797.01379            0   -797.01379    14099.721 
     827 2.2914719e-08   -797.01379            0   -797.01379    14099.721 
     828 2.8145145e-08   -797.01379            0   -797.01379    14099.721 
     829 3.3872624e-08   -797.01379            0   -797.01379    14099.721 
     830 4.0082368e-08   -797.01379            0   -797.01379    14099.721 
     831 4.6757675e-08   -797.01379            0   -797.01379    14099.721 
     832 5.3880468e-08    -797.0138            0    -797.0138    14099.721 
     833 6.1431339e-08    -797.0138            0    -797.0138    14099.721 
     834 6.9389592e-08    -797.0138            0    -797.0138    14099.722 
     835 7.7733293e-08    -797.0138            0    -797.0138    14099.722 
     836 8.6439323e-08    -797.0138            0    -797.0138    14099.722 
     837 9.548343e-08    -797.0138            0    -797.0138    14099.722 
     838 1.0484028e-07    -797.0138            0    -797.0138    14099.722 
     839 1.1448354e-07    -797.0138            0    -797.0138    14099.723 
     840 1.243859e-07    -797.0138            0    -797.0138    14099.723 
     841 1.3451918e-07    -797.0138            0    -797.0138    14099.723 
     842 1.4485438e-07    -797.0138            0    -797.0138    14099.723 
     843 1.5536175e-07    -797.0138            0    -797.0138    14099.723 
     844 1.6601086e-07    -797.0138            0    -797.0138    14099.724 
     845 1.7677069e-07    -797.0138            0    -797.0138    14099.724 
     846 1.8760967e-07    -797.0138            0    -797.0138    14099.724 
     847 1.9849587e-07    -797.0138            0    -797.0138    14099.724 
     848 2.0939672e-07    -797.0138            0    -797.0138    14099.725 
     849 2.2027955e-07    -797.0138            0    -797.0138    14099.725 
     850 2.3110735e-07    -797.0138            0    -797.0138    14099.725 
     851 2.4181636e-07    -797.0138            0    -797.0138    14099.726 
     852 2.5202865e-07    -797.0138            0    -797.0138    14099.726 
     853 2.5786797e-07    -797.0138            0    -797.0138    14099.726 
     854 2.1900415e-07    -797.0138            0    -797.0138    14099.726 
     855 4.0853498e-08    -797.0138            0    -797.0138    14099.727 
     856 4.155523e-09    -797.0138            0    -797.0138    14099.727 
     857 6.8790173e-09    -797.0138            0    -797.0138    14099.727 
     858 9.476226e-09    -797.0138            0    -797.0138    14099.727 
     859 1.2115373e-08    -797.0138            0    -797.0138    14099.727 
     860 1.5027076e-08    -797.0138            0    -797.0138    14099.727 
     861 1.8229904e-08    -797.0138            0    -797.0138    14099.727 
     862 2.1715553e-08    -797.0138            0    -797.0138    14099.727 
     863 2.5474448e-08    -797.0138            0    -797.0138    14099.727 
     864 2.949619e-08    -797.0138            0    -797.0138    14099.727 
     865 3.3769582e-08    -797.0138            0    -797.0138    14099.727 
     866 3.8282655e-08    -797.0138            0    -797.0138    14099.727 
     867 4.3022706e-08    -797.0138            0    -797.0138    14099.728 
     868 4.7976317e-08    -797.0138            0    -797.0138    14099.728 
     869 5.3129397e-08    -797.0138            0    -797.0138    14099.728 
     870 5.8467212e-08    -797.0138            0    -797.0138    14099.728 
     871 6.3974423e-08    -797.0138            0    -797.0138    14099.728 
     872 6.9635125e-08    -797.0138            0    -797.0138    14099.728 
     873 7.5432885e-08    -797.0138            0    -797.0138    14099.728 
     874 8.1350782e-08    -797.0138            0    -797.0138    14099.729 
     875 8.7371456e-08    -797.0138            0    -797.0138    14099.729 
     876 9.3477147e-08    -797.0138            0    -797.0138    14099.729 
     877 9.964974e-08    -797.0138            0    -797.0138    14099.729 
     878 1.0587082e-07    -797.0138            0    -797.0138    14099.729 
     879 1.121217e-07    -797.0138            0    -797.0138     14099.73 
     880 1.183835e-07    -797.0138            0    -797.0138     14099.73 
     881 1.2463703e-07    -797.0138            0    -797.0138     14099.73 
     882 1.3086243e-07    -797.0138            0    -797.0138     14099.73 
     883 1.370324e-07    -797.0138            0    -797.0138     14099.73 
     884 1.4304815e-07    -797.0138            0    -797.0138    14099.731 
     885 1.4798483e-07    -797.0138            0    -797.0138    14099.731 
     886 1.4146156e-07    -797.0138            0    -797.0138    14099.731 
     887 6.1284585e-08    -797.0138            0    -797.0138    14099.731 
     888 1.2114276e-09    -797.0138            0    -797.0138    14099.731 
     889 2.3814759e-09    -797.0138            0    -797.0138    14099.731 
     890 4.064424e-09    -797.0138            0    -797.0138    14099.731 
     891 5.6198104e-09    -797.0138            0    -797.0138    14099.731 
     892 7.161464e-09    -797.0138            0    -797.0138    14099.731 
     893 8.8591366e-09    -797.0138            0    -797.0138    14099.731 
     894 1.072403e-08    -797.0138            0    -797.0138    14099.732 
     895 1.2751071e-08    -797.0138            0    -797.0138    14099.732 
     896 1.4934562e-08    -797.0138            0    -797.0138    14099.732 
     897 1.7268324e-08    -797.0138            0    -797.0138    14099.732 
     898 1.9745716e-08    -797.0138            0    -797.0138    14099.732 
     899 2.2359648e-08    -797.0138            0    -797.0138    14099.732 
     900 2.5102602e-08    -797.0138            0    -797.0138    14099.732 
     901 2.7966647e-08    -797.0138            0    -797.0138    14099.732 
     902 3.0943463e-08    -797.0138            0    -797.0138    14099.732 
     903 3.4024361e-08    -797.0138            0    -797.0138    14099.732 
     904 3.7200304e-08    -797.0138            0    -797.0138    14099.732 
     905 4.0461931e-08    -797.0138            0    -797.0138    14099.733 
     906 4.3799583e-08    -797.0138            0    -797.0138    14099.733 
     907 4.7203326e-08    -797.0138            0    -797.0138    14099.733 
     908 5.0662982e-08    -797.0138            0    -797.0138    14099.733 
     909 5.4168142e-08    -797.0138            0    -797.0138    14099.733 
     910 5.7708226e-08    -797.0138            0    -797.0138    14099.733 
     911 6.1272449e-08    -797.0138            0    -797.0138    14099.733 
     912 6.4849959e-08    -797.0138            0    -797.0138    14099.734 
     913 6.842965e-08    -797.0138            0    -797.0138    14099.734 
     914 7.2000491e-08    -797.0138            0    -797.0138    14099.734 
     915 7.5549662e-08    -797.0138            0    -797.0138    14099.734 
     916 7.905475e-08    -797.0138            0    -797.0138    14099.734 
     917 8.2371185e-08    -797.0138            0    -797.0138    14099.734 
     918 8.399574e-08    -797.0138            0    -797.0138    14099.735 
     919 6.8534726e-08    -797.0138            0    -797.0138    14099.735 
     920 9.9624817e-09    -797.0138            0    -797.0138    14099.735 
     921 2.2684482e-09    -797.0138            0    -797.0138    14099.735 
     922 3.2830808e-09    -797.0138            0    -797.0138    14099.735 
     923 4.1921211e-09    -797.0138            0    -797.0138    14099.735 
     924 5.1825012e-09    -797.0138            0    -797.0138    14099.735 
     925 6.2698823e-09    -797.0138            0    -797.0138    14099.735 
     926 7.4512876e-09    -797.0138            0    -797.0138    14099.735 
     927 8.7233379e-09    -797.0138            0    -797.0138    14099.735 
     928 1.0082367e-08    -797.0138            0    -797.0138    14099.735 
     929 1.1524436e-08    -797.0138            0    -797.0138    14099.735 
     930 1.3045342e-08    -797.0138            0    -797.0138    14099.735 
     931 1.464063e-08    -797.0138            0    -797.0138    14099.735 
     932 1.6305606e-08    -797.0138            0    -797.0138    14099.735 
     933 1.8035346e-08    -797.0138            0    -797.0138    14099.735 
     934 1.9824711e-08    -797.0138            0    -797.0138    14099.736 
     935 2.1668363e-08    -797.0138            0    -797.0138    14099.736 
     936 2.3560773e-08    -797.0138            0    -797.0138    14099.736 
     937 2.5496245e-08    -797.0138            0    -797.0138    14099.736 
     938 2.7468921e-08    -797.0138            0    -797.0138    14099.736 
     939 2.9472807e-08    -797.0138            0    -797.0138    14099.736 
     940 3.1501777e-08    -797.0138            0    -797.0138    14099.736 
     941 3.3549609e-08    -797.0138            0    -797.0138    14099.736 
     942 3.5609972e-08    -797.0138            0    -797.0138    14099.736 
     943 3.7676492e-08    -797.0138            0    -797.0138    14099.736 
     944 3.9742654e-08    -797.0138            0    -797.0138    14099.737 
     945 4.1801844e-08    -797.0138            0    -797.0138    14099.737 
     946 4.3845415e-08    -797.0138            0    -797.0138    14099.737 
     947 4.5848156e-08    -797.0138            0    -797.0138    14099.737 
     948 4.7594289e-08    -797.0138            0    -797.0138    14099.737 
     949 4.6731752e-08    -797.0138            0    -797.0138    14099.737 
     950 2.6060161e-08    -797.0138            0    -797.0138    14099.737 
     951 9.0133088e-10    -797.0138            0    -797.0138    14099.737 
     952 1.8305919e-09    -797.0138            0    -797.0138    14099.737 
     953 2.4864932e-09    -797.0138            0    -797.0138    14099.737 
     954 3.0715715e-09    -797.0138            0    -797.0138    14099.737 
     955 3.7133321e-09    -797.0138            0    -797.0138    14099.737 
     956 4.4102528e-09    -797.0138            0    -797.0138    14099.737 
     957 5.1602968e-09    -797.0138            0    -797.0138    14099.738 
     958 5.9612671e-09    -797.0138            0    -797.0138    14099.738 
     959 6.8108047e-09    -797.0138            0    -797.0138    14099.738 
     960 7.706395e-09    -797.0138            0    -797.0138    14099.738 
     961 8.6453738e-09    -797.0138            0    -797.0138    14099.738 
     962 9.6249351e-09    -797.0138            0    -797.0138    14099.738 
     963 1.0642138e-08    -797.0138            0    -797.0138    14099.738 
     964 1.1693916e-08    -797.0138            0    -797.0138    14099.738 
     965 1.2777085e-08    -797.0138            0    -797.0138    14099.738 
     966 1.3888348e-08    -797.0138            0    -797.0138    14099.738 
     967 1.5024312e-08    -797.0138            0    -797.0138    14099.738 
     968 1.6181491e-08    -797.0138            0    -797.0138    14099.738 
     969 1.735632e-08    -797.0138            0    -797.0138    14099.738 
     970 1.8545156e-08    -797.0138            0    -797.0138    14099.738 
     971 1.9744312e-08    -797.0138            0    -797.0138    14099.738 
     972 2.0950013e-08    -797.0138            0    -797.0138    14099.739 
     973 2.2158483e-08    -797.0138            0    -797.0138    14099.739 
     974 2.3365607e-08    -797.0138            0    -797.0138    14099.739 
     975 2.4565966e-08    -797.0138            0    -797.0138    14099.739 
     976 2.5739049e-08    -797.0138            0    -797.0138    14099.739 
     977 2.6719849e-08    -797.0138            0    -797.0138    14099.739 
     978 2.5828449e-08    -797.0138            0    -797.0138    14099.739 
     979 1.3008236e-08    -797.0138            0    -797.0138    14099.739 
     980 4.9604853e-10    -797.0138            0    -797.0138    14099.739 
     981 9.8139877e-10    -797.0138            0    -797.0138    14099.739 
     982 1.368701e-09    -797.0138            0    -797.0138    14099.739 
     983 1.709502e-09    -797.0138            0    -797.0138    14099.739 
     984 2.0834208e-09    -797.0138            0    -797.0138    14099.739 
     985 2.4910642e-09    -797.0138            0    -797.0138    14099.739 
     986 2.9312292e-09    -797.0138            0    -797.0138    14099.739 
     987 3.4026137e-09    -797.0138            0    -797.0138    14099.739 
     988 3.9038144e-09    -797.0138            0    -797.0138    14099.739 
     989 4.4333315e-09    -797.0138            0    -797.0138    14099.739 
     990 4.9895726e-09    -797.0138            0    -797.0138    14099.739 
     991 5.5708573e-09    -797.0138            0    -797.0138     14099.74 
     992 6.1754223e-09    -797.0138            0    -797.0138     14099.74 
     993 6.8014247e-09    -797.0138            0    -797.0138     14099.74 
     994 7.4469495e-09    -797.0138            0    -797.0138     14099.74 
     995 8.1100127e-09    -797.0138            0    -797.0138     14099.74 
     996 8.7885688e-09    -797.0138            0    -797.0138     14099.74 
     997 9.4805148e-09    -797.0138            0    -797.0138     14099.74 
     998 1.0183698e-08    -797.0138            0    -797.0138     14099.74 
     999 1.089592e-08    -797.0138            0    -797.0138     14099.74 
    1000 1.1614945e-08    -797.0138            0    -797.0138     14099.74 
    1001 1.2338501e-08    -797.0138            0    -797.0138     14099.74 
    1002 1.3064269e-08    -797.0138            0    -797.0138     14099.74 
    1003 1.3789736e-08    -797.0138            0    -797.0138     14099.74 
    1004 1.4510996e-08    -797.0138            0    -797.0138     14099.74 
    1005 1.5211494e-08    -797.0138            0    -797.0138     14099.74 
    1006 1.5751047e-08    -797.0138            0    -797.0138     14099.74 
    1007 1.478247e-08    -797.0138            0    -797.0138    14099.741 
    1008 6.0587228e-09    -797.0138            0    -797.0138    14099.741 
    1009 2.369761e-10    -797.0138            0    -797.0138    14099.741 
    1010 4.5553483e-10    -797.0138            0    -797.0138    14099.741 
    1011 6.7635563e-10    -797.0138            0    -797.0138    14099.741 
    1012 8.7026845e-10    -797.0138            0    -797.0138    14099.741 
    1013 1.0806848e-09    -797.0138            0    -797.0138    14099.741 
    1014 1.3121332e-09    -797.0138            0    -797.0138    14099.741 
    1015 1.563961e-09    -797.0138            0    -797.0138    14099.741 
    1016 1.8354178e-09    -797.0138            0    -797.0138    14099.741 
    1017 2.1256902e-09    -797.0138            0    -797.0138    14099.741 
    1018 2.4339032e-09    -797.0138            0    -797.0138    14099.741 
    1019 2.7591235e-09    -797.0138            0    -797.0138    14099.741 
[...]
    2383 2.1431529e-19    -797.0138            0    -797.0138    14099.746 
    2384 2.3519964e-19    -797.0138            0    -797.0138    14099.746 
    2385 2.5694524e-19    -797.0138            0    -797.0138    14099.746 
    2386 2.7950169e-19    -797.0138            0    -797.0138    14099.746 
    2387 3.0323745e-19    -797.0138            0    -797.0138    14099.746 
    2388 3.2750449e-19    -797.0138            0    -797.0138    14099.746 
    2389 3.5322146e-19    -797.0138            0    -797.0138    14099.746 
    2390 3.8025738e-19    -797.0138            0    -797.0138    14099.746 
    2391 4.1623452e-19    -797.0138            0    -797.0138    14099.746 
    2392 4.735556e-19    -797.0138            0    -797.0138    14099.746 
    2393 6.7285971e-19    -797.0138            0    -797.0138    14099.746 
    2394 1.615895e-18    -797.0138            0    -797.0138    14099.746 
    2395 7.5756766e-18    -797.0138            0    -797.0138    14099.746 
    2396 4.939567e-17    -797.0138            0    -797.0138    14099.746 
    2397 3.5097572e-16    -797.0138            0    -797.0138    14099.746 
    2398 1.3823949e-15    -797.0138            0    -797.0138    14099.746 
    2399 2.938005e-16    -797.0138            0    -797.0138    14099.746 
    2400 4.4594502e-17    -797.0138            0    -797.0138    14099.746 
    2401 3.3526629e-19    -797.0138            0    -797.0138    14099.746 
    2402 5.0578611e-20    -797.0138            0    -797.0138    14099.746 
    2403 5.8372044e-20    -797.0138            0    -797.0138    14099.746 
    2404 6.7409159e-20    -797.0138            0    -797.0138    14099.746 
    2405 7.7089769e-20    -797.0138            0    -797.0138    14099.746 
    2406 8.7394719e-20    -797.0138            0    -797.0138    14099.746 
    2407 9.8123768e-20    -797.0138            0    -797.0138    14099.746 
    2408 1.0979834e-19    -797.0138            0    -797.0138    14099.746 
    2409 1.217392e-19    -797.0138            0    -797.0138    14099.746 
    2410 1.3433515e-19    -797.0138            0    -797.0138    14099.746 
    2411 1.4772195e-19    -797.0138            0    -797.0138    14099.746 
    2412 1.6104571e-19    -797.0138            0    -797.0138    14099.746 
    2413 1.7576461e-19    -797.0138            0    -797.0138    14099.746 
    2414 1.9014263e-19    -797.0138            0    -797.0138    14099.746 
    2415 2.0581469e-19    -797.0138            0    -797.0138    14099.746 
    2416 2.2174059e-19    -797.0138            0    -797.0138    14099.746 
    2417 2.3860417e-19    -797.0138            0    -797.0138    14099.746 
    2418 2.5724925e-19    -797.0138            0    -797.0138    14099.746 
    2419 2.8326058e-19    -797.0138            0    -797.0138    14099.746 
    2420 3.3522525e-19    -797.0138            0    -797.0138    14099.746 
    2421 5.2933914e-19    -797.0138            0    -797.0138    14099.746 
    2422 1.5153976e-18    -797.0138            0    -797.0138    14099.746 
    2423 7.7427534e-18    -797.0138            0    -797.0138    14099.746 
    2424 5.2257121e-17    -797.0138            0    -797.0138    14099.746 
    2425 4.108735e-16    -797.0138            0    -797.0138    14099.746 
    2426 3.4102486e-15    -797.0138            0    -797.0138    14099.746 
    2427 1.5915989e-14    -797.0138            0    -797.0138    14099.746 
    2428 2.1558715e-15    -797.0138            0    -797.0138    14099.746 
    2429 9.308728e-16    -797.0138            0    -797.0138    14099.746 
    2430 6.9479416e-17    -797.0138            0    -797.0138    14099.746 
    2431 1.2648892e-18    -797.0138            0    -797.0138    14099.746 
    2432 3.2900849e-20    -797.0138            0    -797.0138    14099.746 
    2433 3.3747635e-20    -797.0138            0    -797.0138    14099.746 
    2434 3.9081065e-20    -797.0138            0    -797.0138    14099.746 
    2435 4.4722316e-20    -797.0138            0    -797.0138    14099.746 
    2436 5.0848708e-20    -797.0138            0    -797.0138    14099.746 
    2437 5.7219269e-20    -797.0138            0    -797.0138    14099.746 
    2438 6.3950685e-20    -797.0138            0    -797.0138    14099.746 
    2439 7.1040457e-20    -797.0138            0    -797.0138    14099.746 
    2440 7.8449543e-20    -797.0138            0    -797.0138    14099.746 
    2441 8.6166107e-20    -797.0138            0    -797.0138    14099.746 
    2442 9.4376594e-20    -797.0138            0    -797.0138    14099.746 
    2443 1.0275089e-19    -797.0138            0    -797.0138    14099.746 
    2444 1.1141553e-19    -797.0138            0    -797.0138    14099.746 
    2445 1.2056249e-19    -797.0138            0    -797.0138    14099.746 
    2446 1.2985495e-19    -797.0138            0    -797.0138    14099.746 
    2447 1.4036237e-19    -797.0138            0    -797.0138    14099.746 
    2448 1.5132031e-19    -797.0138            0    -797.0138    14099.746 
    2449 1.6963058e-19    -797.0138            0    -797.0138    14099.746 
    2450 2.1094861e-19    -797.0138            0    -797.0138    14099.746 
    2451 3.9785087e-19    -797.0138            0    -797.0138    14099.746 
    2452 1.4207117e-18    -797.0138            0    -797.0138    14099.746 
    2453 8.3530196e-18    -797.0138            0    -797.0138    14099.746 
    2454 6.0743004e-17    -797.0138            0    -797.0138    14099.746 
    2455 5.0833303e-16    -797.0138            0    -797.0138    14099.746 
    2456 4.7635154e-15    -797.0138            0    -797.0138    14099.746 
    2457 4.8223956e-14    -797.0138            0    -797.0138    14099.746 
    2458 3.6534374e-13    -797.0138            0    -797.0138    14099.746 
    2459 1.707542e-13    -797.0138            0    -797.0138    14099.746 
    2460 1.5353073e-15    -797.0138            0    -797.0138    14099.746 
    2461 7.5148739e-18    -797.0138            0    -797.0138    14099.746 
    2462 2.8124944e-19    -797.0138            0    -797.0138    14099.746 
    2463 4.7873042e-20    -797.0138            0    -797.0138    14099.746 
    2464 3.2136815e-20    -797.0138            0    -797.0138    14099.746 
    2465 3.2827695e-20    -797.0138            0    -797.0138    14099.746 
    2466 3.6087152e-20    -797.0138            0    -797.0138    14099.746 
    2467 3.9910882e-20    -797.0138            0    -797.0138    14099.746 
    2468 4.4091736e-20    -797.0138            0    -797.0138    14099.746 
    2469 4.8534715e-20    -797.0138            0    -797.0138    14099.746 
    2470 5.3232413e-20    -797.0138            0    -797.0138    14099.746 
    2471 5.8330168e-20    -797.0138            0    -797.0138    14099.746 
    2472 6.3395793e-20    -797.0138            0    -797.0138    14099.746 
    2473 6.9606367e-20    -797.0138            0    -797.0138    14099.746 
    2474 7.6962691e-20    -797.0138            0    -797.0138    14099.746 
    2475 8.9816219e-20    -797.0138            0    -797.0138    14099.746 
    2476 1.2166592e-19    -797.0138            0    -797.0138    14099.746 
    2477 2.3554231e-19    -797.0138            0    -797.0138    14099.746 
    2478 7.5183594e-19    -797.0138            0    -797.0138    14099.746 
    2479 3.4701344e-18    -797.0138            0    -797.0138    14099.746 
    2480 1.9755543e-17    -797.0138            0    -797.0138    14099.746 
    2481 1.286194e-16    -797.0138            0    -797.0138    14099.746 
    2482 9.1167352e-16    -797.0138            0    -797.0138    14099.746 
    2483 5.4386985e-15    -797.0138            0    -797.0138    14099.746 
    2484 6.6579296e-15    -797.0138            0    -797.0138    14099.746 
    2485 5.9212466e-16    -797.0138            0    -797.0138    14099.746 
    2486 2.6793823e-17    -797.0138            0    -797.0138    14099.746 
    2487 1.1605271e-19    -797.0138            0    -797.0138    14099.746 
    2488 1.152754e-20    -797.0138            0    -797.0138    14099.746 
    2489 1.3143597e-20    -797.0138            0    -797.0138    14099.746 
    2490 1.5176097e-20    -797.0138            0    -797.0138    14099.746 
    2491 1.7342757e-20    -797.0138            0    -797.0138    14099.746 
    2492 1.9651691e-20    -797.0138            0    -797.0138    14099.746 
    2493 2.2079124e-20    -797.0138            0    -797.0138    14099.746 
    2494 2.4626259e-20    -797.0138            0    -797.0138    14099.746 
    2495 2.735512e-20    -797.0138            0    -797.0138    14099.746 
    2496 3.0214016e-20    -797.0138            0    -797.0138    14099.746 
    2497 3.3137219e-20    -797.0138            0    -797.0138    14099.746 
    2498 3.631353e-20    -797.0138            0    -797.0138    14099.746 
    2499 3.9494081e-20    -797.0138            0    -797.0138    14099.746 
    2500 4.2885782e-20    -797.0138            0    -797.0138    14099.746 
    2501 4.6357274e-20    -797.0138            0    -797.0138    14099.746 
    2502 5.0702096e-20    -797.0138            0    -797.0138    14099.746 
    2503 5.5397257e-20    -797.0138            0    -797.0138    14099.746 
    2504 6.6108781e-20    -797.0138            0    -797.0138    14099.746 
    2505 9.2369605e-20    -797.0138            0    -797.0138    14099.746 
    2506 2.1769784e-19    -797.0138            0    -797.0138    14099.746 
    2507 8.4897835e-19    -797.0138            0    -797.0138    14099.746 
    2508 4.7960417e-18    -797.0138            0    -797.0138    14099.746 
    2509 3.2011615e-17    -797.0138            0    -797.0138    14099.746 
    2510 2.4562385e-16    -797.0138            0    -797.0138    14099.746 
    2511 2.1198111e-15    -797.0138            0    -797.0138    14099.746 
    2512 2.0455602e-14    -797.0138            0    -797.0138    14099.746 
    2513 2.1088764e-13    -797.0138            0    -797.0138    14099.746 
    2514 1.4588683e-12    -797.0138            0    -797.0138    14099.745 
    2515 3.8641687e-13    -797.0138            0    -797.0138    14099.746 
    2516 6.8186765e-14    -797.0138            0    -797.0138    14099.746 
    2517 8.3659996e-17    -797.0138            0    -797.0138    14099.746 
    2518 1.696237e-19    -797.0138            0    -797.0138    14099.746 
    2519 1.2906862e-20    -797.0138            0    -797.0138    14099.746 
    2520 9.8107355e-21    -797.0138            0    -797.0138    14099.746 
    2521 1.0693306e-20    -797.0138            0    -797.0138    14099.746 
    2522 1.2063379e-20    -797.0138            0    -797.0138    14099.746 
    2523 1.3452762e-20    -797.0138            0    -797.0138    14099.746 
    2524 1.5021068e-20    -797.0138            0    -797.0138    14099.746 
    2525 1.6614696e-20    -797.0138            0    -797.0138    14099.746 
    2526 1.8310513e-20    -797.0138            0    -797.0138    14099.746 
    2527 2.0064975e-20    -797.0138            0    -797.0138    14099.746 
    2528 2.1905892e-20    -797.0138            0    -797.0138    14099.746 
    2529 2.3782266e-20    -797.0138            0    -797.0138    14099.746 
    2530 2.5965651e-20    -797.0138            0    -797.0138    14099.746 
    2531 2.8434696e-20    -797.0138            0    -797.0138    14099.746 
    2532 3.2010176e-20    -797.0138            0    -797.0138    14099.746 
    2533 3.9501333e-20    -797.0138            0    -797.0138    14099.746 
    2534 6.4357484e-20    -797.0138            0    -797.0138    14099.746 
    2535 1.7222807e-19    -797.0138            0    -797.0138    14099.746 
    2536 7.4658631e-19    -797.0138            0    -797.0138    14099.746 
    2537 4.1937444e-18    -797.0138            0    -797.0138    14099.746 
    2538 2.7674504e-17    -797.0138            0    -797.0138    14099.746 
    2539 2.0635771e-16    -797.0138            0    -797.0138    14099.746 
    2540 1.7163482e-15    -797.0138            0    -797.0138    14099.746 
    2541 1.503845e-14    -797.0138            0    -797.0138    14099.746 
    2542 8.5222458e-14    -797.0138            0    -797.0138    14099.746 
    2543 2.6997608e-14    -797.0138            0    -797.0138    14099.746 
    2544 1.8852273e-15    -797.0138            0    -797.0138    14099.746 
    2545 2.2697387e-18    -797.0138            0    -797.0138    14099.746 
    2546 5.134163e-20    -797.0138            0    -797.0138    14099.746 
    2547 8.497618e-21    -797.0138            0    -797.0138    14099.746 
    2548 6.5168293e-21    -797.0138            0    -797.0138    14099.746 
    2549 7.0152149e-21    -797.0138            0    -797.0138    14099.746 
    2550 7.8188666e-21    -797.0138            0    -797.0138    14099.746 
    2551 8.7104203e-21    -797.0138            0    -797.0138    14099.746 
    2552 9.6735729e-21    -797.0138            0    -797.0138    14099.746 
    2553 1.0674788e-20    -797.0138            0    -797.0138    14099.746 
    2554 1.1777998e-20    -797.0138            0    -797.0138    14099.746 
    2555 1.2864846e-20    -797.0138            0    -797.0138    14099.746 
    2556 1.3968365e-20    -797.0138            0    -797.0138    14099.746 
    2557 1.5240335e-20    -797.0138            0    -797.0138    14099.746 
    2558 1.6476421e-20    -797.0138            0    -797.0138    14099.746 
    2559 1.7971241e-20    -797.0138            0    -797.0138    14099.746 
    2560 1.9656583e-20    -797.0138            0    -797.0138    14099.746 
    2561 2.2596156e-20    -797.0138            0    -797.0138    14099.746 
    2562 3.0061861e-20    -797.0138            0    -797.0138    14099.746 
    2563 5.9952984e-20    -797.0138            0    -797.0138    14099.746 
    2564 2.0865645e-19    -797.0138            0    -797.0138    14099.746 
    2565 1.0796874e-18    -797.0138            0    -797.0138    14099.746 
    2566 6.8181026e-18    -797.0138            0    -797.0138    14099.746 
    2567 4.5999708e-17    -797.0138            0    -797.0138    14099.746 
    2568 1.9998349e-16    -797.0138            0    -797.0138    14099.746 
    2569 7.3129615e-17    -797.0138            0    -797.0138    14099.746 
    2570 9.5115442e-19    -797.0138            0    -797.0138    14099.746 
    2571 5.1552688e-21    -797.0138            0    -797.0138    14099.746 
    2572 3.2076686e-21    -797.0138            0    -797.0138    14099.746 
    2573 3.6372718e-21    -797.0138            0    -797.0138    14099.746 
    2574 4.1494086e-21    -797.0138            0    -797.0138    14099.746 
    2575 4.704427e-21    -797.0138            0    -797.0138    14099.746 
    2576 5.2624134e-21    -797.0138            0    -797.0138    14099.746 
    2577 5.9053003e-21    -797.0138            0    -797.0138    14099.746 
    2578 6.5142428e-21    -797.0138            0    -797.0138    14099.746 
    2579 7.1878337e-21    -797.0138            0    -797.0138    14099.746 
    2580 7.9072542e-21    -797.0138            0    -797.0138    14099.746 
    2581 8.6493993e-21    -797.0138            0    -797.0138    14099.746 
    2582 9.4585119e-21    -797.0138            0    -797.0138    14099.746 
    2583 1.0179509e-20    -797.0138            0    -797.0138    14099.746 
    2584 1.1211838e-20    -797.0138            0    -797.0138    14099.746 
    2585 1.2230088e-20    -797.0138            0    -797.0138    14099.746 
    2586 1.430169e-20    -797.0138            0    -797.0138    14099.746 
    2587 1.8957993e-20    -797.0138            0    -797.0138    14099.746 
    2588 3.7272676e-20    -797.0138            0    -797.0138    14099.746 
    2589 1.2366813e-19    -797.0138            0    -797.0138    14099.746 
    2590 6.1188568e-19    -797.0138            0    -797.0138    14099.746 
    2591 3.7134028e-18    -797.0138            0    -797.0138    14099.746 
    2592 2.5682495e-17    -797.0138            0    -797.0138    14099.746 
    2593 1.7909637e-16    -797.0138            0    -797.0138    14099.746 
    2594 6.0024301e-16    -797.0138            0    -797.0138    14099.746 
    2595 1.0150167e-16    -797.0138            0    -797.0138    14099.746 
    2596 2.0806557e-17    -797.0138            0    -797.0138    14099.746 
    2597 4.269338e-19    -797.0138            0    -797.0138    14099.746 
    2598 2.2323794e-21    -797.0138            0    -797.0138    14099.746 
    2599 1.8025713e-21    -797.0138            0    -797.0138    14099.746 
    2600 2.1063878e-21    -797.0138            0    -797.0138    14099.746 
    2601 2.411892e-21    -797.0138            0    -797.0138    14099.746 
    2602 2.7389421e-21    -797.0138            0    -797.0138    14099.746 
    2603 3.120747e-21    -797.0138            0    -797.0138    14099.746 
    2604 3.4717616e-21    -797.0138            0    -797.0138    14099.746 
    2605 3.8898717e-21    -797.0138            0    -797.0138    14099.746 
    2606 4.2749494e-21    -797.0138            0    -797.0138    14099.746 
    2607 4.7407797e-21    -797.0138            0    -797.0138    14099.746 
    2608 5.1663784e-21    -797.0138            0    -797.0138    14099.746 
    2609 5.6879626e-21    -797.0138            0    -797.0138    14099.746 
    2610 6.168044e-21    -797.0138            0    -797.0138    14099.746 
    2611 6.7255336e-21    -797.0138            0    -797.0138    14099.746 
    2612 7.3308488e-21    -797.0138            0    -797.0138    14099.746 
    2613 8.0417588e-21    -797.0138            0    -797.0138    14099.746 
    2614 9.2992221e-21    -797.0138            0    -797.0138    14099.746 
    2615 1.2439899e-20    -797.0138            0    -797.0138    14099.746 
    2616 2.3919926e-20    -797.0138            0    -797.0138    14099.746 
    2617 7.9055299e-20    -797.0138            0    -797.0138    14099.746 
    2618 3.8600569e-19    -797.0138            0    -797.0138    14099.746 
    2619 2.3643836e-18    -797.0138            0    -797.0138    14099.746 
    2620 1.6827009e-17    -797.0138            0    -797.0138    14099.746 
    2621 1.3644086e-16    -797.0138            0    -797.0138    14099.746 
    2622 1.2463555e-15    -797.0138            0    -797.0138    14099.746 
    2623 1.2579859e-14    -797.0138            0    -797.0138    14099.746 
    2624 1.1773303e-13    -797.0138            0    -797.0138    14099.746 
    2625 2.2445729e-13    -797.0138            0    -797.0138    14099.746 
    2626 8.6923949e-15    -797.0138            0    -797.0138    14099.746 
Loop time of 580.077 on 24 procs for 891 steps with 127 atoms

98.6% CPU use with 24 MPI tasks x no OpenMP threads

Minimization stats:
  Stopping criterion = energy tolerance
  Energy initial, next-to-last, final = 
        -797.013795494     -797.013795494     -797.013795494
  Force two-norm initial, final = 6.22504e-08 4.23219e-08
  Force max component initial, final = 1.60247e-08 1.2263e-08
  Final line search alpha, max atom move = 0 0
  Iterations, force evaluations = 891 891

MPI task timing breakdown:
Section |  min time  |  avg time  |  max time  |%varavg| %total
---------------------------------------------------------------
Pair    | 212.84     | 380.81     | 515.72     | 463.8 | 65.65
Neigh   | 0          | 0          | 0          |   0.0 |  0.00
Comm    | 0.085907   | 134.99     | 302.96     | 779.1 | 23.27
Output  | 0.14686    | 0.15118    | 0.15209    |   0.2 |  0.03
Modify  | 62.445     | 62.446     | 62.447     |   0.0 | 10.77
Other   |            | 1.676      |            |       |  0.29

Nlocal:    5.29167 ave 7 max 3 min
Histogram: 4 0 0 0 0 9 0 7 0 4
Nghost:    759.125 ave 799 max 714 min
Histogram: 7 1 0 0 0 2 6 0 3 5
Neighs:    0 ave 0 max 0 min
Histogram: 24 0 0 0 0 0 0 0 0 0
FullNghs:  1067.5 ave 1409 max 616 min
Histogram: 4 0 0 0 5 4 0 7 0 4

Total # of neighbors = 25620
Ave neighs/atom = 201.732
Neighbor list builds = 0
Dangerous builds = 0
Total wall time: 0:28:56
