LAMMPS (12 Dec 2018)
Processor partition = 7
Reading data file ...
  orthogonal box = (0 0 0) to (10.0025 12.3537 10.615)
  2 by 4 by 3 MPI processor grid
  reading atoms ...
  127 atoms
Reading potential file lammps-force.nnp with DATE: 20201105
Reading potential file lammps_rot.nnp with DATE: 20211226
Neighbor list info ...
  update every 1 steps, delay 0 steps, check yes
  max neighbors/atom: 2000, page size: 100000
  master list distance cutoff = 8
  ghost atom cutoff = 8
  binsize = 4, bins = 3 4 3
  2 neighbor lists, perpetual/occasional/extra = 2 0 0
  (1) pair nnp3v, perpetual
      attributes: full, newton on
      pair build: full/bin/atomonly
      stencil: full/bin/3d
      bin: standard
  (2) pair nnp3v_vf, perpetual, copy from (1)
      attributes: full, newton on
      pair build: copy
      stencil: none
      bin: none
Setting up quickmin style minimization ...
  Unit style    : metal
  Current step  : 0
Per MPI rank memory allocation (min/avg/max) = 3.111 | 3.226 | 3.362 Mbytes
Step Temp E_pair E_mol TotEng Press 
       0            0   -796.79482            0   -796.79482    13324.103 
      24   0.66844098   -796.99042            0   -796.97954    13893.519 
Loop time of 14.4978 on 24 procs for 24 steps with 127 atoms

98.5% CPU use with 24 MPI tasks x no OpenMP threads

Minimization stats:
  Stopping criterion = energy tolerance
  Energy initial, next-to-last, final = 
        -796.794816724     -796.990398619     -796.990424995
  Force two-norm initial, final = 1.98977 0.177561
  Force max component initial, final = 0.330078 0.036579
  Final line search alpha, max atom move = 0 0
  Iterations, force evaluations = 24 24

MPI task timing breakdown:
Section |  min time  |  avg time  |  max time  |%varavg| %total
---------------------------------------------------------------
Pair    | 6.0179     | 10.683     | 14.494     |  77.5 | 73.69
Neigh   | 0          | 0          | 0          |   0.0 |  0.00
Comm    | 0.0025196  | 3.8139     | 8.4787     | 129.6 | 26.31
Output  | 0          | 0          | 0          |   0.0 |  0.00
Modify  | 0          | 0          | 0          |   0.0 |  0.00
Other   |            | 0.001122   |            |       |  0.01

Nlocal:    5.29167 ave 7 max 3 min
Histogram: 4 0 0 0 0 9 0 7 0 4
Nghost:    759.125 ave 797 max 714 min
Histogram: 7 1 0 0 0 2 6 0 0 8
Neighs:    0 ave 0 max 0 min
Histogram: 24 0 0 0 0 0 0 0 0 0
FullNghs:  1068 ave 1413 max 614 min
Histogram: 4 0 0 0 5 4 0 7 0 4

Total # of neighbors = 25632
Ave neighs/atom = 201.827
Neighbor list builds = 0
Dangerous builds = 0
Setting up quickmin style minimization ...
  Unit style    : metal
  Current step  : 0
Per MPI rank memory allocation (min/avg/max) = 5.112 | 5.237 | 5.362 Mbytes
Step Temp E_pair E_mol TotEng Press 
       0            0    -796.4492            0    -796.4492    10672.164 
       1   0.36725756    -796.4492            0   -796.44322    10677.035 
       2    2.7865994   -796.46842            0   -796.42304    10784.459 
       3    7.6762248   -796.50488            0   -796.37986    11015.396 
       4    14.719121   -796.55345            0   -796.31372     11393.07 
       5    22.425894   -796.60632            0   -796.24108    11922.674 
       6    28.060338   -796.65636            0   -796.19935    12550.005 
       7    31.655176   -796.70263            0   -796.18707    13153.808 
       8    39.452303   -796.74823            0   -796.10568    13618.301 
       9    50.904188   -796.79307            0     -795.964    13887.381 
      10    63.779335   -796.83564            0   -795.79688    14087.383 
      11    76.993074   -796.87362            0   -795.61965    14348.349 
      12    85.511149   -796.90469            0   -795.51198    14518.747 
      13    35.989088   -796.91432            0   -796.32818    13942.037 
      14  0.017219143   -796.91432            0   -796.91404    13464.958 
      15  0.072072966   -796.91489            0   -796.91371    13464.661 
      16   0.16693498   -796.91598            0   -796.91326    13464.097 
      17   0.29751272   -796.91751            0   -796.91266    13463.746 
      18   0.45713179   -796.91935            0    -796.9119    13464.384 
      19   0.63482818    -796.9214            0   -796.91106    13467.009 
      20   0.80423867   -796.92361            0   -796.91051     13472.43 
      21   0.93067844   -796.92599            0   -796.91083    13480.415 
      22    1.0698949   -796.92854            0   -796.91111    13490.718 
      23    1.2681172   -796.93127            0   -796.91061    13503.208 
      24     1.497743   -796.93418            0   -796.90979    13517.231 
      25    1.7422574   -796.93725            0   -796.90888     13532.45 
      26    1.9958106   -796.94046            0   -796.90795     13548.74 
      27    2.2553586   -796.94379            0   -796.90706    13566.008 
      28    2.5182952    -796.9472            0   -796.90618    13584.187 
      29    2.7819105   -796.95067            0   -796.90536    13603.207 
      30    3.0435017   -796.95418            0   -796.90461    13622.975 
      31    3.3004676   -796.95769            0   -796.90394    13643.384 
      32    3.5503796   -796.96119            0   -796.90337    13664.335 
      33    3.7910027   -796.96466            0   -796.90291    13685.728 
      34    4.0203619   -796.96807            0   -796.90259    13707.458 
      35    4.2367715   -796.97143            0   -796.90243    13729.412 
      36    4.4388747   -796.97471            0   -796.90241    13751.486 
      37    4.6256189   -796.97784            0    -796.9025    13773.549 
      38    4.7965005   -796.98087            0   -796.90275    13795.547 
      39    4.9509047    -796.9838            0   -796.90316    13817.409 
      40    5.0887713   -796.98663            0   -796.90375    13839.052 
      41    5.2101405   -796.98935            0   -796.90449    13860.505 
      42    5.3156664    -796.9919            0   -796.90533     13881.47 
      43    5.4035941   -796.99432            0   -796.90631    13902.691 
      44    5.4691611   -796.99649            0   -796.90742     13920.85 
      45    5.1890686   -796.99874            0   -796.91423    13944.251 
      46    1.3895916   -796.99891            0   -796.97628    13884.396 
      47 0.00090221094   -796.99891            0    -796.9989    13865.979 
      48 0.0031863249   -796.99895            0    -796.9989    13866.591 
      49  0.007121703   -796.99903            0   -796.99891    13867.818 
      50  0.012844724   -796.99914            0   -796.99893    13869.666 
      51  0.020671773   -796.99929            0   -796.99895     13872.11 
      52  0.031032252   -796.99947            0   -796.99896    13875.034 
      53  0.043532419   -796.99966            0   -796.99895    13878.124 
      54  0.056504105   -796.99987            0   -796.99895    13880.992 
      55  0.070141056   -797.00008            0   -796.99894    13883.593 
      56  0.085311346   -797.00031            0   -796.99892    13886.125 
      57   0.10193075   -797.00055            0   -796.99889    13888.755 
      58   0.11980588    -797.0008            0   -796.99885    13891.566 
      59   0.13883217   -797.00108            0   -796.99882    13894.584 
      60   0.15892379   -797.00137            0   -796.99878    13897.811 
      61   0.17999054   -797.00167            0   -796.99874    13901.242 
      62   0.20193729   -797.00199            0   -796.99871    13904.871 
      63   0.22466509   -797.00233            0   -796.99867     13908.69 
      64   0.24807168   -797.00267            0   -796.99863    13912.693 
      65   0.27205219   -797.00303            0    -796.9986     13916.87 
      66   0.29650003    -797.0034            0   -796.99857    13921.212 
      67   0.32130639   -797.00377            0   -796.99854    13925.706 
      68    0.3463609   -797.00416            0   -796.99851     13930.35 
      69   0.37155351   -797.00455            0   -796.99849    13935.133 
      70   0.39677353   -797.00494            0   -796.99848    13940.047 
      71   0.42190998   -797.00534            0   -796.99846     13945.08 
      72   0.44685311   -797.00573            0   -796.99846    13950.223 
      73   0.47149127   -797.00613            0   -796.99845    13955.465 
      74   0.49571434   -797.00653            0   -796.99846      13960.8 
      75   0.51941511   -797.00693            0   -796.99847    13966.212 
      76   0.54248359   -797.00732            0   -796.99848    13971.691 
      77   0.56480735   -797.00771            0   -796.99851    13977.226 
      78   0.58628183   -797.00809            0   -796.99854    13982.804 
      79   0.60678757   -797.00847            0   -796.99859    13988.416 
      80   0.62623122   -797.00884            0   -796.99864    13994.038 
      81   0.64442771    -797.0092            0   -796.99871    13999.685 
      82   0.66071805   -797.00955            0   -796.99879    14005.253 
      83   0.66546987   -797.00989            0   -796.99905    14010.845 
      84    0.5157889   -797.01017            0   -797.00177    14012.844 
      85  0.026824921   -797.01021            0   -797.00978    14007.506 
      86  0.031060299   -797.01028            0   -797.00977    14008.731 
      87  0.034560183   -797.01034            0   -797.00978    14009.914 
      88  0.039126585   -797.01041            0   -797.00978    14011.188 
      89  0.043913413   -797.01049            0   -797.00977    14012.535 
      90   0.04889755   -797.01057            0   -797.00977    14013.955 
      91  0.054055068   -797.01065            0   -797.00977    14015.445 
      92  0.059368241   -797.01073            0   -797.00976    14017.003 
      93  0.064815903   -797.01082            0   -797.00976    14018.626 
      94  0.070378073   -797.01091            0   -797.00976    14020.312 
      95  0.076032771     -797.011            0   -797.00976    14022.058 
      96  0.081758732   -797.01109            0   -797.00976     14023.86 
      97  0.087532925   -797.01119            0   -797.00976    14025.716 
      98  0.093333364   -797.01128            0   -797.00976    14027.623 
      99  0.099135608   -797.01138            0   -797.00977    14029.576 
     100   0.10491765   -797.01148            0   -797.00977    14031.573 
     101   0.11065153   -797.01158            0   -797.00978    14033.608 
     102   0.11631225   -797.01168            0   -797.00978    14035.681 
     103   0.12183459   -797.01178            0   -797.00979    14037.778 
     104   0.12703476   -797.01187            0    -797.0098    14039.909 
     105   0.13069617   -797.01197            0   -797.00984    14042.009 
     106   0.12524478   -797.01206            0   -797.01002    14043.985 
     107  0.076460463   -797.01214            0   -797.01089    14044.799 
     108  0.010990593   -797.01216            0   -797.01198    14044.543 
     109  0.011657022   -797.01219            0     -797.012    14045.126 
     110  0.013420481   -797.01222            0     -797.012    14045.769 
     111  0.015290416   -797.01225            0     -797.012    14046.455 
     112  0.017255216   -797.01228            0     -797.012    14047.183 
     113  0.019307869   -797.01231            0     -797.012    14047.954 
     114  0.021441208   -797.01235            0     -797.012    14048.764 
     115  0.023647727   -797.01238            0     -797.012    14049.614 
     116  0.025919616   -797.01242            0     -797.012    14050.501 
     117  0.028248776   -797.01246            0     -797.012    14051.424 
     118  0.030626846    -797.0125            0     -797.012    14052.382 
     119   0.03304524   -797.01254            0     -797.012    14053.374 
     120  0.035495159   -797.01258            0     -797.012    14054.396 
     121  0.037967622   -797.01262            0     -797.012    14055.448 
     122    0.0404535   -797.01267            0   -797.01201    14056.529 
     123  0.042943521   -797.01271            0   -797.01201    14057.635 
     124   0.04542843   -797.01275            0   -797.01201    14058.765 
     125  0.047898781   -797.01279            0   -797.01201    14059.917 
     126  0.050345076   -797.01283            0   -797.01201     14061.09 
     127  0.052757854   -797.01288            0   -797.01202    14062.281 
     128  0.055127347   -797.01292            0   -797.01202    14063.489 
     129  0.057441858   -797.01296            0   -797.01203    14064.711 
     130  0.059675718   -797.01301            0   -797.01203    14065.944 
     131  0.061688266   -797.01305            0   -797.01204    14067.183 
     132  0.062342561   -797.01309            0   -797.01207      14068.4 
     133  0.052542687   -797.01312            0   -797.01227    14069.361 
     134  0.013176026   -797.01314            0   -797.01293    14069.379 
     135 0.0016125915   -797.01315            0   -797.01312    14069.397 
     136 0.0024244275   -797.01316            0   -797.01312    14069.623 
     137 0.0030117791   -797.01316            0   -797.01311    14069.874 
     138 0.0035918129   -797.01317            0   -797.01311    14070.148 
     139 0.0042145219   -797.01318            0   -797.01311    14070.446 
     140 0.0048799829   -797.01319            0   -797.01311    14070.768 
     141 0.0055860843    -797.0132            0   -797.01311    14071.112 
     142 0.0063305616   -797.01321            0   -797.01311    14071.478 
     143 0.0071110161   -797.01322            0   -797.01311    14071.866 
     144 0.0079249219   -797.01324            0   -797.01311    14072.275 
     145 0.0087696345   -797.01325            0   -797.01311    14072.704 
     146 0.0096423992   -797.01326            0   -797.01311    14073.153 
     147   0.01054036   -797.01328            0   -797.01311    14073.621 
     148  0.011460571   -797.01329            0   -797.01311    14074.108 
     149  0.012400009   -797.01331            0   -797.01311    14074.612 
     150  0.013355585   -797.01332            0   -797.01311    14075.133 
     151  0.014324131   -797.01334            0   -797.01311     14075.67 
     152  0.015302434   -797.01336            0   -797.01311    14076.222 
     153  0.016287254   -797.01337            0   -797.01311    14076.788 
     154  0.017275321   -797.01339            0   -797.01311    14077.367 
     155   0.01826336   -797.01341            0   -797.01311    14077.958 
     156  0.019248085   -797.01343            0   -797.01311     14078.56 
     157  0.020226242   -797.01345            0   -797.01312    14079.173 
     158  0.021194565   -797.01346            0   -797.01312    14079.795 
     159  0.022149894   -797.01348            0   -797.01312    14080.425 
     160  0.023089051    -797.0135            0   -797.01312    14081.062 
     161  0.024009017   -797.01352            0   -797.01313    14081.704 
     162  0.024906706   -797.01353            0   -797.01313    14082.352 
     163  0.025779357   -797.01355            0   -797.01313    14083.003 
     164  0.026624032   -797.01357            0   -797.01314    14083.657 
     165  0.027437368   -797.01359            0   -797.01314    14084.313 
     166  0.028215079    -797.0136            0   -797.01314    14084.966 
     167  0.028891526   -797.01362            0   -797.01315    14085.628 
     168  0.028844911   -797.01363            0   -797.01316     14086.22 
     169  0.020251605   -797.01365            0   -797.01332    14086.609 
     170 0.0005767095   -797.01365            0   -797.01364    14086.374 
     171 0.00069959592   -797.01365            0   -797.01364    14086.421 
     172 0.00075595721   -797.01365            0   -797.01364    14086.491 
     173 0.00082480267   -797.01365            0   -797.01364    14086.582 
     174 0.00097633565   -797.01365            0   -797.01364    14086.688 
     175 0.0011645677   -797.01366            0   -797.01364    14086.807 
     176 0.0013702098   -797.01366            0   -797.01364    14086.937 
     177  0.001590646   -797.01366            0   -797.01364    14087.077 
     178 0.0018251667   -797.01367            0   -797.01364    14087.227 
     179 0.0020731178   -797.01367            0   -797.01364    14087.386 
     180 0.0023338042   -797.01367            0   -797.01364    14087.556 
     181 0.0026064903   -797.01368            0   -797.01364    14087.734 
     182 0.0028904062   -797.01368            0   -797.01364    14087.921 
     183 0.0031847513   -797.01369            0   -797.01363    14088.117 
     184 0.0034886976   -797.01369            0   -797.01363    14088.321 
     185 0.0038013908    -797.0137            0   -797.01363    14088.534 
     186 0.0041219536    -797.0137            0   -797.01363    14088.754 
     187 0.0044494892   -797.01371            0   -797.01363    14088.981 
     188  0.004783085   -797.01371            0   -797.01363    14089.215 
     189 0.0051218129   -797.01372            0   -797.01363    14089.455 
     190 0.0054647338   -797.01372            0   -797.01363    14089.702 
     191  0.005810908   -797.01373            0   -797.01363    14089.955 
     192 0.0061593907   -797.01373            0   -797.01363    14090.212 
     193  0.006509237   -797.01374            0   -797.01363    14090.475 
     194 0.0068595057   -797.01374            0   -797.01363    14090.742 
     195 0.0072092629   -797.01375            0   -797.01363    14091.014 
     196 0.0075575875   -797.01375            0   -797.01363    14091.288 
     197 0.0079036106   -797.01376            0   -797.01363    14091.566 
     198 0.0082464382   -797.01376            0   -797.01363    14091.847 
     199 0.0085851813   -797.01377            0   -797.01363     14092.13 
     200 0.0089190077   -797.01377            0   -797.01363    14092.414 
     201 0.0092470507   -797.01378            0   -797.01363      14092.7 
     202   0.00956853   -797.01378            0   -797.01363    14092.986 
     203 0.0098817383   -797.01379            0   -797.01363    14093.276 
     204  0.010176924   -797.01379            0   -797.01363    14093.553 
     205  0.010331741    -797.0138            0   -797.01363    14093.866 
     206 0.0088654562   -797.01381            0   -797.01366    14093.995 
     207 0.0015510227    -797.0138            0   -797.01378    14094.135 
     208 9.818718e-05    -797.0138            0    -797.0138    14094.114 
     209 0.00015539707    -797.0138            0    -797.0138    14094.126 
     210 0.00021662279   -797.01381            0    -797.0138    14094.151 
     211 0.00027725183   -797.01381            0    -797.0138    14094.188 
     212 0.00034176462   -797.01381            0    -797.0138    14094.233 
     213 0.00041219717   -797.01381            0    -797.0138    14094.284 
     214 0.00048869689   -797.01381            0    -797.0138     14094.34 
     215 0.00057109869   -797.01381            0    -797.0138      14094.4 
     216 0.00065920771   -797.01381            0    -797.0138    14094.465 
     217 0.00075281499   -797.01381            0    -797.0138    14094.534 
     218 0.00085169865   -797.01381            0    -797.0138    14094.608 
     219 0.00095562445   -797.01381            0    -797.0138    14094.686 
     220 0.0010643465   -797.01381            0    -797.0138    14094.767 
     221 0.0011776079   -797.01382            0    -797.0138    14094.853 
     222 0.0012951418   -797.01382            0    -797.0138    14094.942 
     223 0.0014166719   -797.01382            0    -797.0138    14095.035 
     224 0.0015419138   -797.01382            0   -797.01379    14095.132 
     225 0.0016705754   -797.01382            0   -797.01379    14095.231 
     226 0.0018023582   -797.01382            0   -797.01379    14095.334 
     227  0.001936958   -797.01382            0   -797.01379     14095.44 
     228 0.0020740659   -797.01382            0   -797.01379    14095.548 
     229 0.0022133693   -797.01383            0   -797.01379    14095.659 
     230 0.0023545531   -797.01383            0   -797.01379    14095.773 
     231 0.0024972998   -797.01383            0   -797.01379    14095.888 
     232 0.0026412891   -797.01383            0   -797.01379    14096.006 
     233 0.0027862033   -797.01383            0   -797.01379    14096.125 
     234 0.0029317204   -797.01383            0   -797.01378    14096.246 
     235 0.0030775256   -797.01383            0   -797.01378    14096.368 
     236 0.0032233096   -797.01384            0   -797.01378    14096.492 
     237  0.003368763   -797.01384            0   -797.01378    14096.616 
     238 0.0035135813   -797.01384            0   -797.01378    14096.741 
     239 0.0036574643   -797.01384            0   -797.01378    14096.866 
     240 0.0038001203   -797.01384            0   -797.01378    14096.992 
     241 0.0039412544   -797.01384            0   -797.01378    14097.118 
     242 0.0040805177   -797.01384            0   -797.01377    14097.244 
     243 0.0042169119   -797.01384            0   -797.01377     14097.37 
     244 0.0043407498   -797.01384            0   -797.01377    14097.494 
     245 0.0043241676   -797.01384            0   -797.01377    14097.614 
     246 0.0028327113   -797.01384            0    -797.0138    14097.691 
     247 9.281223e-05   -797.01384            0   -797.01384    14097.669 
     248 0.0001844533   -797.01384            0   -797.01384    14097.692 
     249 0.0002201727   -797.01384            0   -797.01384    14097.718 
     250 0.00025628867   -797.01384            0   -797.01384    14097.745 
     251 0.00029488654   -797.01384            0   -797.01384    14097.774 
     252 0.00033588012   -797.01384            0   -797.01384    14097.805 
     253 0.0003791871   -797.01384            0   -797.01384    14097.838 
     254 0.00042472048   -797.01384            0   -797.01384    14097.872 
     255 0.00047238876   -797.01384            0   -797.01384    14097.908 
     256 0.00052209625   -797.01384            0   -797.01383    14097.946 
     257 0.00057374329   -797.01384            0   -797.01383    14097.986 
     258  0.000627227   -797.01384            0   -797.01383    14098.027 
     259 0.00068244041   -797.01384            0   -797.01383    14098.069 
     260 0.00073927338   -797.01384            0   -797.01383    14098.113 
     261 0.00079761305   -797.01384            0   -797.01383    14098.158 
     262 0.00085734423   -797.01384            0   -797.01383    14098.205 
     263 0.00091834883   -797.01384            0   -797.01383    14098.252 
     264 0.00098050694   -797.01384            0   -797.01383      14098.3 
     265 0.0010436968   -797.01384            0   -797.01383     14098.35 
     266 0.0011077954   -797.01384            0   -797.01383      14098.4 
     267 0.0011726779   -797.01384            0   -797.01382    14098.451 
     268 0.0012382192   -797.01384            0   -797.01382    14098.503 
     269 0.0013042926   -797.01384            0   -797.01382    14098.555 
     270 0.0013707716   -797.01384            0   -797.01382    14098.608 
     271 0.0014375263   -797.01384            0   -797.01382    14098.661 
     272   0.00150442   -797.01384            0   -797.01382    14098.715 
     273 0.0015712168   -797.01384            0   -797.01382    14098.768 
     274 0.0016369541   -797.01384            0   -797.01382    14098.822 
     275 0.0016933592   -797.01384            0   -797.01381    14098.875 
     276  0.001661277   -797.01384            0   -797.01381    14098.927 
     277 0.0010068118   -797.01384            0   -797.01382    14098.955 
     278 6.4753138e-05   -797.01384            0   -797.01384    14098.952 
     279 0.00010684259   -797.01384            0   -797.01384    14098.965 
     280 0.00012502733   -797.01384            0   -797.01384    14098.978 
     281 0.00014493769   -797.01384            0   -797.01384    14098.992 
     282 0.00016618256   -797.01384            0   -797.01384    14099.007 
     283 0.00018872182   -797.01384            0   -797.01384    14099.023 
     284 0.00021251428   -797.01384            0   -797.01384     14099.04 
     285 0.00023751644   -797.01384            0   -797.01384    14099.057 
     286 0.00026368257   -797.01384            0   -797.01384    14099.076 
     287 0.00029096477   -797.01384            0   -797.01383    14099.095 
     288 0.00031931309   -797.01384            0   -797.01383    14099.115 
     289 0.00034867561   -797.01384            0   -797.01383    14099.136 
     290 0.00037899856   -797.01384            0   -797.01383    14099.157 
     291 0.00041022643   -797.01384            0   -797.01383    14099.179 
     292 0.00044230205   -797.01384            0   -797.01383    14099.202 
     293 0.00047516681   -797.01384            0   -797.01383    14099.225 
     294 0.00050876059   -797.01384            0   -797.01383    14099.249 
     295 0.00054302193   -797.01384            0   -797.01383    14099.273 
     296 0.00057788819   -797.01384            0   -797.01383    14099.297 
     297 0.00061329575   -797.01384            0   -797.01383    14099.322 
     298 0.00064917977   -797.01384            0   -797.01383    14099.347 
     299 0.00068547476   -797.01384            0   -797.01382    14099.373 
     300 0.00072211301   -797.01384            0   -797.01382    14099.398 
     301 0.00075902328   -797.01384            0   -797.01382    14099.424 
     302 0.00079609808   -797.01383            0   -797.01382     14099.45 
     303 0.00083300597   -797.01383            0   -797.01382    14099.476 
     304 0.00086745395   -797.01383            0   -797.01382    14099.502 
     305 0.00088024225   -797.01383            0   -797.01382    14099.527 
     306 0.00072258262   -797.01383            0   -797.01382    14099.547 
     307 0.0001608416   -797.01383            0   -797.01383     14099.55 
     308 3.2329428e-05   -797.01383            0   -797.01383    14099.552 
     309 4.4772361e-05   -797.01383            0   -797.01383    14099.557 
     310 5.425056e-05   -797.01383            0   -797.01383    14099.563 
     311 6.4318334e-05   -797.01383            0   -797.01383    14099.569 
     312 7.5184078e-05   -797.01383            0   -797.01383    14099.576 
     313 8.6830455e-05   -797.01383            0   -797.01383    14099.583 
     314 9.9237522e-05   -797.01383            0   -797.01383     14099.59 
     315 0.00011238394   -797.01383            0   -797.01383    14099.598 
     316 0.00012624704   -797.01383            0   -797.01383    14099.607 
     317 0.00014080284   -797.01383            0   -797.01383    14099.615 
     318 0.00015602609   -797.01383            0   -797.01383    14099.625 
     319 0.00017189032   -797.01383            0   -797.01383    14099.634 
     320 0.00018836791   -797.01383            0   -797.01383    14099.644 
     321 0.00020543009   -797.01383            0   -797.01383    14099.654 
     322  0.000223047   -797.01383            0   -797.01383    14099.665 
     323 0.00024118778   -797.01383            0   -797.01383    14099.676 
     324 0.00025982057   -797.01383            0   -797.01382    14099.687 
     325 0.00027891255   -797.01383            0   -797.01382    14099.698 
     326 0.00029843006   -797.01383            0   -797.01382     14099.71 
     327 0.00031833858   -797.01383            0   -797.01382    14099.721 
     328 0.00033860282   -797.01383            0   -797.01382    14099.733 
     329 0.00035918675   -797.01383            0   -797.01382    14099.745 
     330 0.00038005366   -797.01383            0   -797.01382    14099.757 
     331 0.0004011662   -797.01383            0   -797.01382    14099.769 
     332 0.00042248643   -797.01383            0   -797.01382    14099.781 
     333 0.00044397588   -797.01383            0   -797.01382    14099.793 
     334 0.00046559558   -797.01382            0   -797.01382    14099.805 
     335 0.00048730588   -797.01382            0   -797.01382    14099.817 
     336 0.00050906657   -797.01382            0   -797.01382    14099.829 
     337 0.00053083144   -797.01382            0   -797.01382    14099.841 
     338  0.000552511   -797.01382            0   -797.01381    14099.853 
     339 0.00057347466   -797.01382            0   -797.01381    14099.865 
     340 0.00058666387   -797.01382            0   -797.01381    14099.876 
     341 0.00051096038   -797.01382            0   -797.01381    14099.885 
     342 0.00010316588   -797.01382            0   -797.01382    14099.883 
     343 4.9761794e-06   -797.01382            0   -797.01382    14099.883 
     344 8.4640188e-06   -797.01382            0   -797.01382    14099.884 
     345 1.2537284e-05   -797.01382            0   -797.01382    14099.885 
     346 1.6523268e-05   -797.01382            0   -797.01382    14099.887 
     347 2.0664541e-05   -797.01382            0   -797.01382    14099.889 
     348 2.518909e-05   -797.01382            0   -797.01382    14099.891 
     349 3.0135835e-05   -797.01382            0   -797.01382    14099.893 
     350 3.5500026e-05   -797.01382            0   -797.01382    14099.895 
     351 4.127292e-05   -797.01382            0   -797.01382    14099.898 
     352 4.7444976e-05   -797.01382            0   -797.01382      14099.9 
     353 5.4005935e-05   -797.01382            0   -797.01382    14099.903 
     354 6.0944842e-05   -797.01382            0   -797.01382    14099.906 
     355 6.8250057e-05   -797.01382            0   -797.01382    14099.909 
     356 7.5909274e-05   -797.01382            0   -797.01382    14099.912 
     357 8.390954e-05   -797.01382            0   -797.01382    14099.916 
     358 9.2237269e-05   -797.01382            0   -797.01382    14099.919 
     359 0.00010087827   -797.01382            0   -797.01382    14099.923 
     360 0.00010981775   -797.01382            0   -797.01382    14099.926 
     361 0.00011904035   -797.01382            0   -797.01382     14099.93 
     362 0.00012853015   -797.01382            0   -797.01382    14099.934 
     363 0.0001382707   -797.01382            0   -797.01382    14099.938 
     364 0.00014824504   -797.01382            0   -797.01382    14099.942 
     365 0.00015843575   -797.01382            0   -797.01382    14099.945 
     366 0.00016882488   -797.01382            0   -797.01382    14099.949 
     367 0.00017939409   -797.01382            0   -797.01382    14099.953 
     368 0.00019012457   -797.01382            0   -797.01382    14099.957 
     369 0.00020099714   -797.01382            0   -797.01381    14099.961 
     370 0.00021199224   -797.01382            0   -797.01381    14099.965 
     371 0.00022308993   -797.01382            0   -797.01381    14099.969 
     372 0.00023426991   -797.01382            0   -797.01381    14099.972 
     373 0.00024551156   -797.01382            0   -797.01381    14099.976 
     374 0.00025679402   -797.01382            0   -797.01381    14099.979 
     375 0.00026809591   -797.01382            0   -797.01381    14099.983 
     376 0.0002793953   -797.01382            0   -797.01381    14099.986 
     377 0.00029066329   -797.01382            0   -797.01381    14099.989 
     378 0.00030180852   -797.01382            0   -797.01381    14099.992 
     379 0.00031197349   -797.01382            0   -797.01381    14099.995 
     380 0.00031080873   -797.01381            0   -797.01381    14099.998 
     381 0.00020185083   -797.01381            0   -797.01381    14099.998 
     382 8.4189365e-06   -797.01381            0   -797.01381    14099.996 
     383 1.5829984e-05   -797.01381            0   -797.01381    14099.996 
     384 1.858911e-05   -797.01381            0   -797.01381    14099.997 
     385 2.1601357e-05   -797.01381            0   -797.01381    14099.997 
     386 2.4821507e-05   -797.01381            0   -797.01381    14099.998 
     387 2.8243902e-05   -797.01381            0   -797.01381    14099.998 
     388 3.1862786e-05   -797.01381            0   -797.01381    14099.999 
     389 3.5672079e-05   -797.01381            0   -797.01381    14099.999 
     390 3.9665341e-05   -797.01381            0   -797.01381        14100 
     391 4.3835789e-05   -797.01381            0   -797.01381    14100.001 
     392  4.81763e-05   -797.01381            0   -797.01381    14100.001 
     393 5.2679424e-05   -797.01381            0   -797.01381    14100.002 
     394 5.7337389e-05   -797.01381            0   -797.01381    14100.002 
     395 6.2142114e-05   -797.01381            0   -797.01381    14100.003 
     396 6.7085214e-05   -797.01381            0   -797.01381    14100.004 
     397 7.2158015e-05   -797.01381            0   -797.01381    14100.004 
     398 7.7351556e-05   -797.01381            0   -797.01381    14100.005 
     399 8.2656612e-05   -797.01381            0   -797.01381    14100.005 
     400 8.806368e-05   -797.01381            0   -797.01381    14100.006 
     401 9.3563032e-05   -797.01381            0   -797.01381    14100.006 
     402 9.9144628e-05   -797.01381            0   -797.01381    14100.006 
     403 0.00010479825   -797.01381            0   -797.01381    14100.006 
     404 0.00011051284   -797.01381            0   -797.01381    14100.007 
     405 0.00011627527   -797.01381            0   -797.01381    14100.007 
     406 0.00012205344   -797.01381            0   -797.01381    14100.007 
     407 0.00012768645   -797.01381            0   -797.01381    14100.007 
     408 0.00013188907   -797.01381            0   -797.01381    14100.006 
     409 0.00012418647   -797.01381            0   -797.01381    14100.006 
     410 5.9084683e-05   -797.01381            0   -797.01381    14100.005 
     411 4.3336241e-06   -797.01381            0   -797.01381    14100.004 
     412 7.2978161e-06   -797.01381            0   -797.01381    14100.004 
     413 8.9373307e-06   -797.01381            0   -797.01381    14100.004 
     414 1.0592701e-05   -797.01381            0   -797.01381    14100.004 
     415 1.237975e-05   -797.01381            0   -797.01381    14100.004 
     416 1.4295256e-05   -797.01381            0   -797.01381    14100.003 
     417 1.6335995e-05   -797.01381            0   -797.01381    14100.003 
     418 1.8498512e-05   -797.01381            0   -797.01381    14100.003 
     419 2.0779124e-05   -797.01381            0   -797.01381    14100.003 
     420 2.3173923e-05   -797.01381            0   -797.01381    14100.003 
     421 2.5678782e-05   -797.01381            0   -797.01381    14100.002 
     422 2.8289359e-05   -797.01381            0   -797.01381    14100.002 
     423 3.1001102e-05   -797.01381            0   -797.01381    14100.002 
     424 3.3809257e-05   -797.01381            0   -797.01381    14100.001 
     425 3.6708866e-05   -797.01381            0   -797.01381    14100.001 
     426 3.9694783e-05   -797.01381            0   -797.01381        14100 
     427 4.276167e-05   -797.01381            0   -797.01381        14100 
     428 4.5904008e-05   -797.01381            0   -797.01381    14099.999 
     429 4.9116102e-05   -797.01381            0   -797.01381    14099.998 
     430 5.2392088e-05   -797.01381            0   -797.01381    14099.998 
     431 5.5725937e-05   -797.01381            0   -797.01381    14099.997 
     432 5.9111462e-05   -797.01381            0   -797.01381    14099.996 
     433 6.2542327e-05   -797.01381            0   -797.01381    14099.995 
     434 6.6012047e-05   -797.01381            0   -797.01381    14099.994 
     435 6.9514005e-05   -797.01381            0   -797.01381    14099.993 
     436 7.3041433e-05   -797.01381            0   -797.01381    14099.992 
     437 7.6587462e-05   -797.01381            0   -797.01381    14099.991 
     438 8.0144828e-05   -797.01381            0   -797.01381     14099.99 
     439  8.37051e-05   -797.01381            0   -797.01381    14099.988 
     440 8.7244587e-05   -797.01381            0   -797.01381    14099.987 
     441 9.0588496e-05   -797.01381            0    -797.0138    14099.985 
     442 9.1745161e-05   -797.01381            0    -797.0138    14099.984 
     443 7.1075055e-05   -797.01381            0    -797.0138    14099.982 
     444 7.7588751e-06   -797.01381            0   -797.01381     14099.98 
     445 4.0566502e-06   -797.01381            0   -797.01381     14099.98 
     446 4.9590095e-06   -797.01381            0   -797.01381     14099.98 
     447 5.883036e-06   -797.01381            0   -797.01381    14099.979 
     448 6.8809171e-06   -797.01381            0   -797.01381    14099.979 
     449 7.9507732e-06   -797.01381            0   -797.01381    14099.978 
     450 9.0907539e-06   -797.01381            0   -797.01381    14099.978 
     451 1.0298872e-05   -797.01381            0   -797.01381    14099.977 
     452 1.157301e-05   -797.01381            0   -797.01381    14099.976 
     453 1.2910918e-05   -797.01381            0   -797.01381    14099.976 
     454 1.431022e-05   -797.01381            0   -797.01381    14099.975 
     455 1.5768415e-05   -797.01381            0   -797.01381    14099.974 
     456 1.7282881e-05   -797.01381            0   -797.01381    14099.973 
     457 1.8850875e-05   -797.01381            0    -797.0138    14099.972 
     458 2.0469541e-05   -797.01381            0    -797.0138    14099.971 
     459 2.2135907e-05   -797.01381            0    -797.0138     14099.97 
     460 2.3846894e-05    -797.0138            0    -797.0138    14099.969 
     461 2.5599315e-05    -797.0138            0    -797.0138    14099.968 
     462 2.7389882e-05    -797.0138            0    -797.0138    14099.967 
     463 2.9215205e-05    -797.0138            0    -797.0138    14099.966 
     464 3.1071803e-05    -797.0138            0    -797.0138    14099.965 
     465 3.2956097e-05    -797.0138            0    -797.0138    14099.963 
     466 3.4864425e-05    -797.0138            0    -797.0138    14099.962 
     467 3.6793036e-05    -797.0138            0    -797.0138     14099.96 
     468 3.8738106e-05    -797.0138            0    -797.0138    14099.959 
     469 4.0695698e-05    -797.0138            0    -797.0138    14099.957 
     470 4.2661793e-05    -797.0138            0    -797.0138    14099.955 
     471 4.4631461e-05    -797.0138            0    -797.0138    14099.954 
     472 4.6594097e-05    -797.0138            0    -797.0138    14099.952 
     473 4.8474056e-05    -797.0138            0    -797.0138     14099.95 
     474 4.9502789e-05    -797.0138            0    -797.0138    14099.948 
     475 4.1914471e-05    -797.0138            0    -797.0138    14099.946 
     476 8.0829657e-06    -797.0138            0    -797.0138    14099.945 
     477 8.749795e-07    -797.0138            0    -797.0138    14099.944 
     478 1.375823e-06    -797.0138            0    -797.0138    14099.944 
     479 1.8151894e-06    -797.0138            0    -797.0138    14099.944 
     480 2.2509828e-06    -797.0138            0    -797.0138    14099.943 
     481 2.7256405e-06    -797.0138            0    -797.0138    14099.943 
     482 3.2430269e-06    -797.0138            0    -797.0138    14099.942 
     483 3.8023569e-06    -797.0138            0    -797.0138    14099.942 
     484 4.4026369e-06    -797.0138            0    -797.0138    14099.941 
     485 5.0427909e-06    -797.0138            0    -797.0138    14099.941 
     486 5.7216633e-06    -797.0138            0    -797.0138     14099.94 
     487 6.4380203e-06    -797.0138            0    -797.0138    14099.939 
     488 7.1905515e-06    -797.0138            0    -797.0138    14099.938 
     489 7.977871e-06    -797.0138            0    -797.0138    14099.937 
     490 8.7985195e-06    -797.0138            0    -797.0138    14099.937 
     491 9.6509652e-06    -797.0138            0    -797.0138    14099.936 
     492 1.0533606e-05    -797.0138            0    -797.0138    14099.935 
     493 1.1444773e-05    -797.0138            0    -797.0138    14099.934 
     494 1.238273e-05    -797.0138            0    -797.0138    14099.933 
     495 1.3345673e-05    -797.0138            0    -797.0138    14099.931 
     496 1.4331739e-05    -797.0138            0    -797.0138     14099.93 
     497 1.5339002e-05    -797.0138            0    -797.0138    14099.929 
     498 1.636548e-05    -797.0138            0    -797.0138    14099.928 
     499 1.7409134e-05    -797.0138            0    -797.0138    14099.926 
     500 1.8467869e-05    -797.0138            0    -797.0138    14099.925 
     501 1.9539542e-05    -797.0138            0    -797.0138    14099.923 
     502 2.0621957e-05    -797.0138            0    -797.0138    14099.922 
     503 2.1712873e-05    -797.0138            0    -797.0138     14099.92 
     504 2.2810004e-05    -797.0138            0    -797.0138    14099.919 
     505 2.3911024e-05    -797.0138            0    -797.0138    14099.917 
     506 2.5013558e-05    -797.0138            0    -797.0138    14099.915 
     507 2.611518e-05    -797.0138            0    -797.0138    14099.913 
     508 2.7213292e-05    -797.0138            0    -797.0138    14099.912 
     509 2.8303797e-05    -797.0138            0    -797.0138     14099.91 
     510 2.9363299e-05    -797.0138            0    -797.0138    14099.908 
     511 3.011142e-05    -797.0138            0    -797.0138    14099.906 
     512 2.6943884e-05    -797.0138            0    -797.0138    14099.904 
     513 5.8971116e-06    -797.0138            0    -797.0138    14099.903 
     514 9.7600858e-08    -797.0138            0    -797.0138    14099.902 
     515 1.8318482e-07    -797.0138            0    -797.0138    14099.902 
     516 3.1904122e-07    -797.0138            0    -797.0138    14099.902 
     517 4.9489863e-07    -797.0138            0    -797.0138    14099.902 
     518 6.8350994e-07    -797.0138            0    -797.0138    14099.901 
     519 8.8308726e-07    -797.0138            0    -797.0138    14099.901 
     520 1.1025223e-06    -797.0138            0    -797.0138    14099.901 
     521 1.3447271e-06    -797.0138            0    -797.0138      14099.9 
     522 1.6096592e-06    -797.0138            0    -797.0138      14099.9 
     523 1.8968437e-06    -797.0138            0    -797.0138    14099.899 
     524 2.2057464e-06    -797.0138            0    -797.0138    14099.899 
     525 2.5357882e-06    -797.0138            0    -797.0138    14099.898 
     526 2.8863458e-06    -797.0138            0    -797.0138    14099.898 
     527 3.2567524e-06    -797.0138            0    -797.0138    14099.897 
     528 3.6462987e-06    -797.0138            0    -797.0138    14099.896 
     529 4.0542337e-06    -797.0138            0    -797.0138    14099.895 
     530 4.4797652e-06    -797.0138            0    -797.0138    14099.895 
     531 4.9220615e-06    -797.0138            0    -797.0138    14099.894 
     532 5.3802518e-06    -797.0138            0    -797.0138    14099.893 
     533 5.8534274e-06    -797.0138            0    -797.0138    14099.892 
     534 6.3406427e-06    -797.0138            0    -797.0138    14099.891 
     535 6.8409168e-06    -797.0138            0    -797.0138     14099.89 
     536 7.3532341e-06    -797.0138            0    -797.0138    14099.889 
     537 7.8765456e-06    -797.0138            0    -797.0138    14099.888 
     538 8.4097706e-06    -797.0138            0    -797.0138    14099.887 
     539 8.9517975e-06    -797.0138            0    -797.0138    14099.885 
     540 9.5014856e-06    -797.0138            0    -797.0138    14099.884 
     541 1.0057666e-05    -797.0138            0    -797.0138    14099.883 
     542 1.0619143e-05    -797.0138            0    -797.0138    14099.882 
     543 1.1184696e-05    -797.0138            0    -797.0138     14099.88 
     544 1.1753081e-05    -797.0138            0    -797.0138    14099.879 
     545 1.2323031e-05    -797.0138            0    -797.0138    14099.877 
     546 1.289326e-05    -797.0138            0    -797.0138    14099.876 
     547 1.346246e-05    -797.0138            0    -797.0138    14099.874 
     548 1.4029309e-05    -797.0138            0    -797.0138    14099.873 
     549 1.4592439e-05    -797.0138            0    -797.0138    14099.871 
     550 1.5150258e-05    -797.0138            0    -797.0138    14099.869 
     551 1.5698061e-05    -797.0138            0    -797.0138    14099.868 
     552 1.6184058e-05    -797.0138            0    -797.0138    14099.865 
     553 1.5836257e-05    -797.0138            0    -797.0138    14099.867 
     554 7.6111428e-06    -797.0138            0    -797.0138    14099.857 
     555 3.5193933e-08    -797.0138            0    -797.0138    14099.858 
     556 6.6254508e-08    -797.0138            0    -797.0138    14099.859 
     557 1.2062344e-07    -797.0138            0    -797.0138     14099.86 
     558 2.0859841e-07    -797.0138            0    -797.0138    14099.861 
     559 3.1560949e-07    -797.0138            0    -797.0138    14099.862 
     560 4.1991359e-07    -797.0138            0    -797.0138    14099.862 
     561 5.2888043e-07    -797.0138            0    -797.0138    14099.861 
     562 6.4879439e-07    -797.0138            0    -797.0138    14099.861 
     563 7.8027911e-07    -797.0138            0    -797.0138    14099.861 
     564 9.2309284e-07    -797.0138            0    -797.0138     14099.86 
     565 1.0769543e-06    -797.0138            0    -797.0138     14099.86 
     566 1.2415598e-06    -797.0138            0    -797.0138    14099.859 
     567 1.4165815e-06    -797.0138            0    -797.0138    14099.859 
     568 1.6016683e-06    -797.0138            0    -797.0138    14099.858 
     569 1.7964462e-06    -797.0138            0    -797.0138    14099.858 
     570 2.0005191e-06    -797.0138            0    -797.0138    14099.857 
     571 2.2134691e-06    -797.0138            0    -797.0138    14099.856 
     572 2.4348567e-06    -797.0138            0    -797.0138    14099.856 
     573 2.6642222e-06    -797.0138            0    -797.0138    14099.855 
     574 2.9010855e-06    -797.0138            0    -797.0138    14099.854 
     575 3.1449471e-06    -797.0138            0    -797.0138    14099.853 
     576 3.3952888e-06    -797.0138            0    -797.0138    14099.853 
     577 3.6515741e-06    -797.0138            0    -797.0138    14099.852 
     578 3.9132495e-06    -797.0138            0    -797.0138    14099.851 
     579 4.1797443e-06    -797.0138            0    -797.0138     14099.85 
     580 4.4504723e-06    -797.0138            0    -797.0138    14099.849 
     581 4.7248321e-06    -797.0138            0    -797.0138    14099.848 
     582 5.002208e-06    -797.0138            0    -797.0138    14099.847 
     583 5.2819707e-06    -797.0138            0    -797.0138    14099.846 
     584 5.5634786e-06    -797.0138            0    -797.0138    14099.845 
     585 5.8460777e-06    -797.0138            0    -797.0138    14099.844 
     586 6.1291046e-06    -797.0138            0    -797.0138    14099.842 
     587 6.4118822e-06    -797.0138            0    -797.0138    14099.841 
     588 6.6937288e-06    -797.0138            0    -797.0138     14099.84 
     589 6.9738811e-06    -797.0138            0    -797.0138    14099.839 
     590 7.2510794e-06    -797.0138            0    -797.0138    14099.837 
     591 7.5164866e-06    -797.0138            0    -797.0138    14099.836 
     592 7.6608904e-06    -797.0138            0    -797.0138    14099.834 
     593 6.3181063e-06    -797.0138            0    -797.0138    14099.834 
     594 7.4185692e-07    -797.0138            0    -797.0138    14099.833 
     595 1.5066976e-07    -797.0138            0    -797.0138    14099.833 
     596 2.1691765e-07    -797.0138            0    -797.0138    14099.833 
     597 2.7664007e-07    -797.0138            0    -797.0138    14099.832 
     598 3.4041258e-07    -797.0138            0    -797.0138    14099.832 
     599 4.1031718e-07    -797.0138            0    -797.0138    14099.832 
     600 4.8630359e-07    -797.0138            0    -797.0138    14099.831 
     601 5.6821568e-07    -797.0138            0    -797.0138    14099.831 
     602 6.5588307e-07    -797.0138            0    -797.0138    14099.831 
     603  7.49122e-07    -797.0138            0    -797.0138     14099.83 
     604 8.4773563e-07    -797.0138            0    -797.0138     14099.83 
     605 9.5151431e-07    -797.0138            0    -797.0138    14099.829 
     606 1.0602359e-06    -797.0138            0    -797.0138    14099.829 
     607 1.1736661e-06    -797.0138            0    -797.0138    14099.828 
     608 1.2915586e-06    -797.0138            0    -797.0138    14099.828 
     609 1.4136559e-06    -797.0138            0    -797.0138    14099.827 
     610 1.5396889e-06    -797.0138            0    -797.0138    14099.827 
     611 1.6693782e-06    -797.0138            0    -797.0138    14099.826 
     612 1.8024337e-06    -797.0138            0    -797.0138    14099.825 
     613 1.9385557e-06    -797.0138            0    -797.0138    14099.825 
     614 2.0774348e-06    -797.0138            0    -797.0138    14099.824 
     615 2.2187526e-06    -797.0138            0    -797.0138    14099.823 
     616 2.3621821e-06    -797.0138            0    -797.0138    14099.822 
     617 2.5073886e-06    -797.0138            0    -797.0138    14099.822 
     618 2.6540293e-06    -797.0138            0    -797.0138    14099.821 
     619 2.8017549e-06    -797.0138            0    -797.0138     14099.82 
     620 2.9502089e-06    -797.0138            0    -797.0138    14099.819 
     621 3.0990302e-06    -797.0138            0    -797.0138    14099.818 
     622 3.2478497e-06    -797.0138            0    -797.0138    14099.817 
     623 3.3962979e-06    -797.0138            0    -797.0138    14099.816 
     624 3.543983e-06    -797.0138            0    -797.0138    14099.815 
     625 3.6904581e-06    -797.0138            0    -797.0138    14099.814 
     626 3.8342661e-06    -797.0138            0    -797.0138    14099.813 
     627 3.9615604e-06    -797.0138            0    -797.0138    14099.812 
     628 3.8854933e-06    -797.0138            0    -797.0138    14099.811 
     629 2.0124892e-06    -797.0138            0    -797.0138    14099.811 
     630 2.5756379e-08    -797.0138            0    -797.0138    14099.811 
     631 5.023304e-08    -797.0138            0    -797.0138    14099.811 
     632 8.8694205e-08    -797.0138            0    -797.0138     14099.81 
     633 1.244048e-07    -797.0138            0    -797.0138     14099.81 
     634 1.5693724e-07    -797.0138            0    -797.0138     14099.81 
     635 1.921247e-07    -797.0138            0    -797.0138     14099.81 
     636 2.3063505e-07    -797.0138            0    -797.0138    14099.809 
     637 2.7239882e-07    -797.0138            0    -797.0138    14099.809 
     638 3.1732537e-07    -797.0138            0    -797.0138    14099.809 
     639 3.6531629e-07    -797.0138            0    -797.0138    14099.809 
     640 4.1626556e-07    -797.0138            0    -797.0138    14099.808 
     641 4.7005986e-07    -797.0138            0    -797.0138    14099.808 
     642 5.2657871e-07    -797.0138            0    -797.0138    14099.808 
     643 5.8569466e-07    -797.0138            0    -797.0138    14099.807 
     644 6.4727352e-07    -797.0138            0    -797.0138    14099.807 
     645 7.1117453e-07    -797.0138            0    -797.0138    14099.806 
     646 7.7725061e-07    -797.0138            0    -797.0138    14099.806 
     647 8.4534856e-07    -797.0138            0    -797.0138    14099.805 
     648 9.1530935e-07    -797.0138            0    -797.0138    14099.805 
     649 9.8696834e-07    -797.0138            0    -797.0138    14099.804 
     650 1.0601556e-06    -797.0138            0    -797.0138    14099.804 
     651 1.134696e-06    -797.0138            0    -797.0138    14099.803 
     652 1.2104098e-06    -797.0138            0    -797.0138    14099.803 
     653 1.2871128e-06    -797.0138            0    -797.0138    14099.802 
     654 1.3646166e-06    -797.0138            0    -797.0138    14099.801 
     655 1.4427288e-06    -797.0138            0    -797.0138    14099.801 
     656 1.5212538e-06    -797.0138            0    -797.0138      14099.8 
     657 1.5999923e-06    -797.0138            0    -797.0138      14099.8 
     658 1.6787407e-06    -797.0138            0    -797.0138    14099.799 
     659 1.7572801e-06    -797.0138            0    -797.0138    14099.798 
     660 1.835244e-06    -797.0138            0    -797.0138    14099.797 
     661 1.9107606e-06    -797.0138            0    -797.0138    14099.797 
     662 1.9637275e-06    -797.0138            0    -797.0138    14099.796 
     663 1.7684783e-06    -797.0138            0    -797.0138    14099.795 
     664 4.6527545e-07    -797.0138            0    -797.0138    14099.795 
     665 1.2025442e-08    -797.0138            0    -797.0138    14099.795 
     666 2.2364265e-08    -797.0138            0    -797.0138    14099.795 
     667 3.7351693e-08    -797.0138            0    -797.0138    14099.795 
     668 5.355298e-08    -797.0138            0    -797.0138    14099.794 
     669 7.0026729e-08    -797.0138            0    -797.0138    14099.794 
     670 8.8006948e-08    -797.0138            0    -797.0138    14099.794 
     671 1.0788897e-07    -797.0138            0    -797.0138    14099.794 
     672 1.2966646e-07    -797.0138            0    -797.0138    14099.794 
     673 1.5329069e-07    -797.0138            0    -797.0138    14099.794 
     674 1.7870793e-07    -797.0138            0    -797.0138    14099.793 
     675 2.0585992e-07    -797.0138            0    -797.0138    14099.793 
     676 2.3468397e-07    -797.0138            0    -797.0138    14099.793 
     677 2.651131e-07    -797.0138            0    -797.0138    14099.793 
     678 2.970761e-07    -797.0138            0    -797.0138    14099.792 
     679 3.3049769e-07    -797.0138            0    -797.0138    14099.792 
     680 3.6529864e-07    -797.0138            0    -797.0138    14099.792 
     681 4.0139589e-07    -797.0138            0    -797.0138    14099.791 
     682 4.3870269e-07    -797.0138            0    -797.0138    14099.791 
     683 4.7712879e-07    -797.0138            0    -797.0138    14099.791 
     684 5.1658055e-07    -797.0138            0    -797.0138     14099.79 
     685 5.5696112e-07    -797.0138            0    -797.0138     14099.79 
     686 5.9817064e-07    -797.0138            0    -797.0138    14099.789 
     687 6.4010635e-07    -797.0138            0    -797.0138    14099.789 
     688 6.8266288e-07    -797.0138            0    -797.0138    14099.789 
     689 7.2573231e-07    -797.0138            0    -797.0138    14099.788 
     690 7.6920451e-07    -797.0138            0    -797.0138    14099.788 
     691 8.1296723e-07    -797.0138            0    -797.0138    14099.787 
     692 8.5690634e-07    -797.0138            0    -797.0138    14099.787 
     693 9.0090613e-07    -797.0138            0    -797.0138    14099.786 
     694 9.4484866e-07    -797.0138            0    -797.0138    14099.786 
     695 9.8861303e-07    -797.0138            0    -797.0138    14099.785 
     696 1.0320358e-06    -797.0138            0    -797.0138    14099.784 
     697 1.0745722e-06    -797.0138            0    -797.0138    14099.784 
     698 1.1106398e-06    -797.0138            0    -797.0138    14099.783 
     699 1.0723505e-06    -797.0138            0    -797.0138    14099.783 
     700 4.8626905e-07    -797.0138            0    -797.0138    14099.782 
     701 6.5479324e-09    -797.0138            0    -797.0138    14099.782 
     702 1.2736275e-08    -797.0138            0    -797.0138    14099.782 
     703 2.2801751e-08    -797.0138            0    -797.0138    14099.782 
     704 3.3325147e-08    -797.0138            0    -797.0138    14099.782 
     705 4.3097216e-08    -797.0138            0    -797.0138    14099.782 
     706 5.3605758e-08    -797.0138            0    -797.0138    14099.782 
     707 6.5176104e-08    -797.0138            0    -797.0138    14099.782 
     708 7.7795763e-08    -797.0138            0    -797.0138    14099.782 
     709 9.1434775e-08    -797.0138            0    -797.0138    14099.781 
     710 1.0606066e-07    -797.0138            0    -797.0138    14099.781 
     711 1.2163831e-07    -797.0138            0    -797.0138    14099.781 
     712 1.3813012e-07    -797.0138            0    -797.0138    14099.781 
     713 1.5549598e-07    -797.0138            0    -797.0138    14099.781 
     714 1.7369338e-07    -797.0138            0    -797.0138     14099.78 
     715 1.9267753e-07    -797.0138            0    -797.0138     14099.78 
     716 2.1240137e-07    -797.0138            0    -797.0138     14099.78 
     717 2.328157e-07    -797.0138            0    -797.0138     14099.78 
     718 2.5386927e-07    -797.0138            0    -797.0138    14099.779 
     719 2.7550886e-07    -797.0138            0    -797.0138    14099.779 
     720 2.9767941e-07    -797.0138            0    -797.0138    14099.779 
     721 3.2032409e-07    -797.0138            0    -797.0138    14099.778 
     722 3.4338444e-07    -797.0138            0    -797.0138    14099.778 
     723 3.6680047e-07    -797.0138            0    -797.0138    14099.778 
     724 3.9051077e-07    -797.0138            0    -797.0138    14099.777 
     725 4.1445266e-07    -797.0138            0    -797.0138    14099.777 
     726 4.3856229e-07    -797.0138            0    -797.0138    14099.777 
     727 4.6277479e-07    -797.0138            0    -797.0138    14099.776 
     728 4.8702436e-07    -797.0138            0    -797.0138    14099.776 
     729 5.1124451e-07    -797.0138            0    -797.0138    14099.775 
     730 5.3536795e-07    -797.0138            0    -797.0138    14099.775 
     731 5.5932744e-07    -797.0138            0    -797.0138    14099.775 
     732 5.8305353e-07    -797.0138            0    -797.0138    14099.774 
     733 6.0647881e-07    -797.0138            0    -797.0138    14099.774 
     734 6.2948093e-07    -797.0138            0    -797.0138    14099.773 
     735 6.5142426e-07    -797.0138            0    -797.0138    14099.773 
     736 6.6256243e-07    -797.0138            0    -797.0138    14099.772 
     737 5.3301496e-07    -797.0138            0    -797.0138    14099.772 
     738 4.6937804e-08    -797.0138            0    -797.0138    14099.772 
     739 3.464862e-08    -797.0138            0    -797.0138    14099.772 
     740 4.1289092e-08    -797.0138            0    -797.0138    14099.772 
     741 4.8554169e-08    -797.0138            0    -797.0138    14099.772 
     742 5.6345158e-08    -797.0138            0    -797.0138    14099.771 
     743 6.4641836e-08    -797.0138            0    -797.0138    14099.771 
     744 7.3423416e-08    -797.0138            0    -797.0138    14099.771 
     745 8.2667569e-08    -797.0138            0    -797.0138    14099.771 
     746 9.2350766e-08    -797.0138            0    -797.0138    14099.771 
     747 1.0244812e-07    -797.0138            0    -797.0138    14099.771 
     748 1.1293359e-07    -797.0138            0    -797.0138     14099.77 
     749 1.2377991e-07    -797.0138            0    -797.0138     14099.77 
     750 1.3495878e-07    -797.0138            0    -797.0138     14099.77 
     751 1.4644075e-07    -797.0138            0    -797.0138     14099.77 
     752 1.5819551e-07    -797.0138            0    -797.0138     14099.77 
     753 1.701916e-07    -797.0138            0    -797.0138    14099.769 
     754 1.8239705e-07    -797.0138            0    -797.0138    14099.769 
     755 1.9477843e-07    -797.0138            0    -797.0138    14099.769 
     756 2.0730256e-07    -797.0138            0    -797.0138    14099.769 
     757 2.1993214e-07    -797.0138            0    -797.0138    14099.768 
     758 2.3262764e-07    -797.0138            0    -797.0138    14099.768 
     759 2.4528971e-07    -797.0138            0    -797.0138    14099.768 
     760 2.5748736e-07    -797.0138            0    -797.0138    14099.768 
     761 2.6572589e-07    -797.0138            0    -797.0138    14099.767 
     762 2.4303507e-07    -797.0138            0    -797.0138    14099.767 
     763 9.7292042e-08    -797.0138            0    -797.0138    14099.767 
     764 8.2534913e-09    -797.0138            0    -797.0138    14099.767 
     765 1.3543492e-08    -797.0138            0    -797.0138    14099.767 
     766 1.726677e-08    -797.0138            0    -797.0138    14099.767 
     767 2.1123217e-08    -797.0138            0    -797.0138    14099.767 
     768 2.5343489e-08    -797.0138            0    -797.0138    14099.766 
     769 2.9914146e-08    -797.0138            0    -797.0138    14099.766 
     770 3.4823435e-08    -797.0138            0    -797.0138    14099.766 
     771 4.005876e-08    -797.0138            0    -797.0138    14099.766 
     772 4.560659e-08    -797.0138            0    -797.0138    14099.766 
     773 5.1452504e-08    -797.0138            0    -797.0138    14099.766 
     774 5.758121e-08    -797.0138            0    -797.0138    14099.766 
     775 6.3976587e-08    -797.0138            0    -797.0138    14099.766 
     776 7.0621707e-08    -797.0138            0    -797.0138    14099.765 
     777 7.7498888e-08    -797.0138            0    -797.0138    14099.765 
     778 8.4589712e-08    -797.0138            0    -797.0138    14099.765 
     779 9.1875081e-08    -797.0138            0    -797.0138    14099.765 
     780 9.9335249e-08    -797.0138            0    -797.0138    14099.765 
     781 1.0694987e-07    -797.0138            0    -797.0138    14099.765 
     782 1.1469805e-07    -797.0138            0    -797.0138    14099.764 
     783 1.2255836e-07    -797.0138            0    -797.0138    14099.764 
     784 1.3050894e-07    -797.0138            0    -797.0138    14099.764 
     785 1.385275e-07    -797.0138            0    -797.0138    14099.764 
     786 1.4659138e-07    -797.0138            0    -797.0138    14099.764 
     787 1.5467757e-07    -797.0138            0    -797.0138    14099.763 
     788 1.6276236e-07    -797.0138            0    -797.0138    14099.763 
     789 1.7081836e-07    -797.0138            0    -797.0138    14099.763 
     790 1.7878521e-07    -797.0138            0    -797.0138    14099.763 
     791 1.8626854e-07    -797.0138            0    -797.0138    14099.762 
     792 1.8922994e-07    -797.0138            0    -797.0138    14099.762 
     793 1.4986565e-07    -797.0138            0    -797.0138    14099.762 
     794 2.0551071e-08    -797.0138            0    -797.0138    14099.762 
     795 7.3896533e-09    -797.0138            0    -797.0138    14099.762 
     796 9.7152966e-09    -797.0138            0    -797.0138    14099.762 
     797 1.195602e-08    -797.0138            0    -797.0138    14099.762 
     798 1.4409838e-08    -797.0138            0    -797.0138    14099.762 
     799 1.7072754e-08    -797.0138            0    -797.0138    14099.761 
     800 1.9937767e-08    -797.0138            0    -797.0138    14099.761 
     801 2.2997316e-08    -797.0138            0    -797.0138    14099.761 
     802 2.6243276e-08    -797.0138            0    -797.0138    14099.761 
     803 2.9666975e-08    -797.0138            0    -797.0138    14099.761 
     804 3.3259213e-08    -797.0138            0    -797.0138    14099.761 
     805 3.7010283e-08    -797.0138            0    -797.0138    14099.761 
     806 4.0909991e-08    -797.0138            0    -797.0138    14099.761 
     807 4.4947681e-08    -797.0138            0    -797.0138    14099.761 
     808 4.9112257e-08    -797.0138            0    -797.0138    14099.761 
     809 5.3392212e-08    -797.0138            0    -797.0138     14099.76 
     810 5.7775646e-08    -797.0138            0    -797.0138     14099.76 
     811 6.2250307e-08    -797.0138            0    -797.0138     14099.76 
     812 6.6803604e-08    -797.0138            0    -797.0138     14099.76 
     813 7.1422488e-08    -797.0138            0    -797.0138     14099.76 
     814 7.609393e-08    -797.0138            0    -797.0138     14099.76 
     815 8.0804547e-08    -797.0138            0    -797.0138    14099.759 
     816 8.5540706e-08    -797.0138            0    -797.0138    14099.759 
     817 9.0288515e-08    -797.0138            0    -797.0138    14099.759 
     818 9.5033067e-08    -797.0138            0    -797.0138    14099.759 
     819 9.9752174e-08    -797.0138            0    -797.0138    14099.759 
     820 1.0435707e-07    -797.0138            0    -797.0138    14099.759 
     821 1.0807959e-07    -797.0138            0    -797.0138    14099.758 
     822 1.0319848e-07    -797.0138            0    -797.0138    14099.758 
     823 4.738435e-08    -797.0138            0    -797.0138    14099.758 
     824 1.6426214e-09    -797.0138            0    -797.0138    14099.758 
     825 3.1881245e-09    -797.0138            0    -797.0138    14099.758 
     826 4.6773634e-09    -797.0138            0    -797.0138    14099.758 
     827 5.9299316e-09    -797.0138            0    -797.0138    14099.758 
     828 7.2834251e-09    -797.0138            0    -797.0138    14099.758 
     829 8.765581e-09    -797.0138            0    -797.0138    14099.758 
     830 1.0372536e-08    -797.0138            0    -797.0138    14099.758 
     831 1.2099967e-08    -797.0138            0    -797.0138    14099.758 
     832 1.3943195e-08    -797.0138            0    -797.0138    14099.758 
     833 1.5897199e-08    -797.0138            0    -797.0138    14099.758 
     834 1.7956621e-08    -797.0138            0    -797.0138    14099.758 
     835 2.0115785e-08    -797.0138            0    -797.0138    14099.757 
     836 2.2368709e-08    -797.0138            0    -797.0138    14099.757 
     837 2.4709115e-08    -797.0138            0    -797.0138    14099.757 
     838 2.7130448e-08    -797.0138            0    -797.0138    14099.757 
     839 2.962589e-08    -797.0138            0    -797.0138    14099.757 
     840 3.2188377e-08    -797.0138            0    -797.0138    14099.757 
     841 3.4810616e-08    -797.0138            0    -797.0138    14099.757 
     842 3.7485099e-08    -797.0138            0    -797.0138    14099.757 
     843 4.0204129e-08    -797.0138            0    -797.0138    14099.757 
     844 4.295983e-08    -797.0138            0    -797.0138    14099.756 
     845 4.5744177e-08    -797.0138            0    -797.0138    14099.756 
     846 4.8548998e-08    -797.0138            0    -797.0138    14099.756 
     847 5.1366024e-08    -797.0138            0    -797.0138    14099.756 
     848 5.4186852e-08    -797.0138            0    -797.0138    14099.756 
     849 5.7002961e-08    -797.0138            0    -797.0138    14099.756 
     850 5.9804954e-08    -797.0138            0    -797.0138    14099.756 
     851 6.2575832e-08    -797.0138            0    -797.0138    14099.756 
     852 6.5219563e-08    -797.0138            0    -797.0138    14099.755 
     853 6.6729992e-08    -797.0138            0    -797.0138    14099.755 
     854 5.6704197e-08    -797.0138            0    -797.0138    14099.755 
     855 1.0611384e-08    -797.0138            0    -797.0138    14099.755 
     856 1.0777328e-09    -797.0138            0    -797.0138    14099.755 
     857 1.7811867e-09    -797.0138            0    -797.0138    14099.755 
     858 2.4524163e-09    -797.0138            0    -797.0138    14099.755 
     859 3.1351669e-09    -797.0138            0    -797.0138    14099.755 
     860 3.8886108e-09    -797.0138            0    -797.0138    14099.755 
     861 4.7174136e-09    -797.0138            0    -797.0138    14099.755 
     862 5.6194042e-09    -797.0138            0    -797.0138    14099.755 
     863 6.5921026e-09    -797.0138            0    -797.0138    14099.755 
     864 7.6328177e-09    -797.0138            0    -797.0138    14099.755 
     865 8.7386516e-09    -797.0138            0    -797.0138    14099.755 
     866 9.9065073e-09    -797.0138            0    -797.0138    14099.755 
     867 1.1133097e-08    -797.0138            0    -797.0138    14099.755 
     868 1.2414949e-08    -797.0138            0    -797.0138    14099.754 
     869 1.3748415e-08    -797.0138            0    -797.0138    14099.754 
     870 1.5129685e-08    -797.0138            0    -797.0138    14099.754 
     871 1.6554787e-08    -797.0138            0    -797.0138    14099.754 
     872 1.8019606e-08    -797.0138            0    -797.0138    14099.754 
     873 1.9519889e-08    -797.0138            0    -797.0138    14099.754 
     874 2.1051257e-08    -797.0138            0    -797.0138    14099.754 
     875 2.2609219e-08    -797.0138            0    -797.0138    14099.754 
     876 2.4189177e-08    -797.0138            0    -797.0138    14099.754 
     877 2.5786445e-08    -797.0138            0    -797.0138    14099.754 
     878 2.7396257e-08    -797.0138            0    -797.0138    14099.754 
     879 2.9013775e-08    -797.0138            0    -797.0138    14099.754 
     880 3.063412e-08    -797.0138            0    -797.0138    14099.753 
     881 3.2252316e-08    -797.0138            0    -797.0138    14099.753 
     882 3.386324e-08    -797.0138            0    -797.0138    14099.753 
     883 3.5459792e-08    -797.0138            0    -797.0138    14099.753 
     884 3.7016503e-08    -797.0138            0    -797.0138    14099.753 
     885 3.829406e-08    -797.0138            0    -797.0138    14099.753 
     886 3.6607576e-08    -797.0138            0    -797.0138    14099.753 
     887 1.5867912e-08    -797.0138            0    -797.0138    14099.753 
     888 3.1397297e-10    -797.0138            0    -797.0138    14099.753 
     889 6.1667921e-10    -797.0138            0    -797.0138    14099.753 
     890 1.0519202e-09    -797.0138            0    -797.0138    14099.753 
     891 1.4542557e-09    -797.0138            0    -797.0138    14099.753 
     892 1.8531651e-09    -797.0138            0    -797.0138    14099.753 
     893 2.2924651e-09    -797.0138            0    -797.0138    14099.753 
     894 2.7750381e-09    -797.0138            0    -797.0138    14099.753 
     895 3.299571e-09    -797.0138            0    -797.0138    14099.753 
     896 3.8645877e-09    -797.0138            0    -797.0138    14099.752 
     897 4.4684892e-09    -797.0138            0    -797.0138    14099.752 
     898 5.1095571e-09    -797.0138            0    -797.0138    14099.752 
     899 5.7859568e-09    -797.0138            0    -797.0138    14099.752 
     900 6.4957424e-09    -797.0138            0    -797.0138    14099.752 
     901 7.236862e-09    -797.0138            0    -797.0138    14099.752 
     902 8.0071623e-09    -797.0138            0    -797.0138    14099.752 
     903 8.8043947e-09    -797.0138            0    -797.0138    14099.752 
     904 9.6262207e-09    -797.0138            0    -797.0138    14099.752 
     905 1.0470218e-08    -797.0138            0    -797.0138    14099.752 
     906 1.1333887e-08    -797.0138            0    -797.0138    14099.752 
     907 1.2214658e-08    -797.0138            0    -797.0138    14099.752 
     908 1.3109894e-08    -797.0138            0    -797.0138    14099.752 
     909 1.4016908e-08    -797.0138            0    -797.0138    14099.752 
     910 1.4932951e-08    -797.0138            0    -797.0138    14099.752 
     911 1.585525e-08    -797.0138            0    -797.0138    14099.752 
     912 1.6780967e-08    -797.0138            0    -797.0138    14099.752 
     913 1.7707286e-08    -797.0138            0    -797.0138    14099.751 
     914 1.8631228e-08    -797.0138            0    -797.0138    14099.751 
     915 1.9549758e-08    -797.0138            0    -797.0138    14099.751 
     916 2.0456409e-08    -797.0138            0    -797.0138    14099.751 
     917 2.131551e-08    -797.0138            0    -797.0138    14099.751 
     918 2.1734155e-08    -797.0138            0    -797.0138    14099.751 
     919 1.7744472e-08    -797.0138            0    -797.0138    14099.751 
     920 2.5844529e-09    -797.0138            0    -797.0138    14099.751 
     921 5.874654e-10    -797.0138            0    -797.0138    14099.751 
     922 8.496527e-10    -797.0138            0    -797.0138    14099.751 
     923 1.0847926e-09    -797.0138            0    -797.0138    14099.751 
     924 1.3410525e-09    -797.0138            0    -797.0138    14099.751 
     925 1.6224246e-09    -797.0138            0    -797.0138    14099.751 
     926 1.9281299e-09    -797.0138            0    -797.0138    14099.751 
     927 2.257291e-09    -797.0138            0    -797.0138    14099.751 
     928 2.6089591e-09    -797.0138            0    -797.0138    14099.751 
     929 2.9821148e-09    -797.0138            0    -797.0138    14099.751 
     930 3.3756704e-09    -797.0138            0    -797.0138    14099.751 
     931 3.7884732e-09    -797.0138            0    -797.0138    14099.751 
     932 4.2193083e-09    -797.0138            0    -797.0138    14099.751 
     933 4.6669019e-09    -797.0138            0    -797.0138    14099.751 
     934 5.129924e-09    -797.0138            0    -797.0138    14099.751 
     935 5.6069931e-09    -797.0138            0    -797.0138    14099.751 
     936 6.096679e-09    -797.0138            0    -797.0138     14099.75 
     937 6.5975071e-09    -797.0138            0    -797.0138     14099.75 
     938 7.1079618e-09    -797.0138            0    -797.0138     14099.75 
     939 7.6264921e-09    -797.0138            0    -797.0138     14099.75 
     940 8.1515124e-09    -797.0138            0    -797.0138     14099.75 
     941 8.6814139e-09    -797.0138            0    -797.0138     14099.75 
     942 9.2145562e-09    -797.0138            0    -797.0138     14099.75 
     943 9.7492926e-09    -797.0138            0    -797.0138     14099.75 
     944 1.0283935e-08    -797.0138            0    -797.0138     14099.75 
     945 1.081677e-08    -797.0138            0    -797.0138     14099.75 
     946 1.1345583e-08    -797.0138            0    -797.0138     14099.75 
     947 1.1863755e-08    -797.0138            0    -797.0138     14099.75 
     948 1.2315954e-08    -797.0138            0    -797.0138     14099.75 
     949 1.2092991e-08    -797.0138            0    -797.0138     14099.75 
     950 6.7522569e-09    -797.0138            0    -797.0138     14099.75 
     951 2.3433399e-10    -797.0138            0    -797.0138     14099.75 
     952 4.741098e-10    -797.0138            0    -797.0138     14099.75 
     953 6.4341385e-10    -797.0138            0    -797.0138     14099.75 
     954 7.9480718e-10    -797.0138            0    -797.0138     14099.75 
     955 9.6087092e-10    -797.0138            0    -797.0138     14099.75 
     956 1.1412068e-09    -797.0138            0    -797.0138     14099.75 
     957 1.3352897e-09    -797.0138            0    -797.0138     14099.75 
     958 1.5425503e-09    -797.0138            0    -797.0138     14099.75 
     959 1.7623782e-09    -797.0138            0    -797.0138     14099.75 
     960 1.9941227e-09    -797.0138            0    -797.0138    14099.749 
     961 2.2370944e-09    -797.0138            0    -797.0138    14099.749 
     962 2.4905671e-09    -797.0138            0    -797.0138    14099.749 
     963 2.7537801e-09    -797.0138            0    -797.0138    14099.749 
     964 3.0259395e-09    -797.0138            0    -797.0138    14099.749 
     965 3.3062215e-09    -797.0138            0    -797.0138    14099.749 
     966 3.5937729e-09    -797.0138            0    -797.0138    14099.749 
     967 3.8877162e-09    -797.0138            0    -797.0138    14099.749 
     968 4.1871485e-09    -797.0138            0    -797.0138    14099.749 
     969 4.4911481e-09    -797.0138            0    -797.0138    14099.749 
     970 4.7987718e-09    -797.0138            0    -797.0138    14099.749 
     971 5.1090656e-09    -797.0138            0    -797.0138    14099.749 
     972 5.4210532e-09    -797.0138            0    -797.0138    14099.749 
     973 5.7337555e-09    -797.0138            0    -797.0138    14099.749 
     974 6.0461156e-09    -797.0138            0    -797.0138    14099.749 
     975 6.3567043e-09    -797.0138            0    -797.0138    14099.749 
     976 6.6603219e-09    -797.0138            0    -797.0138    14099.749 
     977 6.9140379e-09    -797.0138            0    -797.0138    14099.749 
     978 6.6852588e-09    -797.0138            0    -797.0138    14099.749 
     979 3.3719715e-09    -797.0138            0    -797.0138    14099.749 
     980 1.2933652e-10    -797.0138            0    -797.0138    14099.749 
     981 2.5441907e-10    -797.0138            0    -797.0138    14099.749 
     982 3.5421243e-10    -797.0138            0    -797.0138    14099.749 
     983 4.4235258e-10    -797.0138            0    -797.0138    14099.749 
     984 5.3910689e-10    -797.0138            0    -797.0138    14099.749 
     985 6.4458918e-10    -797.0138            0    -797.0138    14099.749 
     986 7.5848641e-10    -797.0138            0    -797.0138    14099.749 
     987 8.8046202e-10    -797.0138            0    -797.0138    14099.749 
     988 1.0101529e-09    -797.0138            0    -797.0138    14099.749 
     989 1.1471708e-09    -797.0138            0    -797.0138    14099.749 
     990 1.2911039e-09    -797.0138            0    -797.0138    14099.749 
     991 1.4415171e-09    -797.0138            0    -797.0138    14099.749 
     992 1.5979543e-09    -797.0138            0    -797.0138    14099.749 
     993 1.7599387e-09    -797.0138            0    -797.0138    14099.748 
     994 1.9269745e-09    -797.0138            0    -797.0138    14099.748 
     995 2.0985487e-09    -797.0138            0    -797.0138    14099.748 
     996 2.2741314e-09    -797.0138            0    -797.0138    14099.748 
     997 2.4531792e-09    -797.0138            0    -797.0138    14099.748 
     998 2.6351342e-09    -797.0138            0    -797.0138    14099.748 
     999 2.8194285e-09    -797.0138            0    -797.0138    14099.748 
    1000 3.0054822e-09    -797.0138            0    -797.0138    14099.748 
    1001 3.1927101e-09    -797.0138            0    -797.0138    14099.748 
    1002 3.3805062e-09    -797.0138            0    -797.0138    14099.748 
    1003 3.5682341e-09    -797.0138            0    -797.0138    14099.748 
    1004  3.75485e-09    -797.0138            0    -797.0138    14099.748 
    1005 3.9361637e-09    -797.0138            0    -797.0138    14099.748 
    1006 4.0757281e-09    -797.0138            0    -797.0138    14099.748 
    1007 3.8261739e-09    -797.0138            0    -797.0138    14099.748 
    1008 1.5705424e-09    -797.0138            0    -797.0138    14099.748 
    1009 6.1617678e-11    -797.0138            0    -797.0138    14099.748 
    1010 1.1805192e-10    -797.0138            0    -797.0138    14099.748 
    1011 1.7504876e-10    -797.0138            0    -797.0138    14099.748 
    1012 2.2519342e-10    -797.0138            0    -797.0138    14099.748 
    1013 2.7963759e-10    -797.0138            0    -797.0138    14099.748 
    1014 3.3952671e-10    -797.0138            0    -797.0138    14099.748 
    1015 4.0468947e-10    -797.0138            0    -797.0138    14099.748 
    1016 4.7493141e-10    -797.0138            0    -797.0138    14099.748 
    1017 5.5004204e-10    -797.0138            0    -797.0138    14099.748 
    1018 6.2979496e-10    -797.0138            0    -797.0138    14099.748 
    1019 7.1394866e-10    -797.0138            0    -797.0138    14099.748 
[...]
    2383 5.5373759e-20    -797.0138            0    -797.0138    14099.746 
    2384 6.0935748e-20    -797.0138            0    -797.0138    14099.746 
    2385   6.6558e-20    -797.0138            0    -797.0138    14099.746 
    2386 7.2373324e-20    -797.0138            0    -797.0138    14099.746 
    2387 7.8364018e-20    -797.0138            0    -797.0138    14099.746 
    2388 8.4866213e-20    -797.0138            0    -797.0138    14099.746 
    2389 9.146215e-20    -797.0138            0    -797.0138    14099.746 
    2390 9.8979021e-20    -797.0138            0    -797.0138    14099.746 
    2391 1.0759326e-19    -797.0138            0    -797.0138    14099.746 
    2392 1.2518487e-19    -797.0138            0    -797.0138    14099.746 
    2393 1.7505367e-19    -797.0138            0    -797.0138    14099.746 
    2394 4.2069102e-19    -797.0138            0    -797.0138    14099.746 
    2395 1.859109e-18    -797.0138            0    -797.0138    14099.746 
    2396 1.1669064e-17    -797.0138            0    -797.0138    14099.746 
    2397 7.9671605e-17    -797.0138            0    -797.0138    14099.746 
    2398 3.0418267e-16    -797.0138            0    -797.0138    14099.746 
    2399 6.2616613e-17    -797.0138            0    -797.0138    14099.746 
    2400 9.9188942e-18    -797.0138            0    -797.0138    14099.746 
    2401 9.9167646e-20    -797.0138            0    -797.0138    14099.746 
    2402 1.309902e-20    -797.0138            0    -797.0138    14099.746 
    2403 1.5105952e-20    -797.0138            0    -797.0138    14099.746 
    2404 1.745305e-20    -797.0138            0    -797.0138    14099.746 
    2405 1.9899058e-20    -797.0138            0    -797.0138    14099.746 
    2406 2.2627277e-20    -797.0138            0    -797.0138    14099.746 
    2407 2.5401572e-20    -797.0138            0    -797.0138    14099.746 
    2408 2.8369819e-20    -797.0138            0    -797.0138    14099.746 
    2409 3.154706e-20    -797.0138            0    -797.0138    14099.746 
    2410 3.4745454e-20    -797.0138            0    -797.0138    14099.746 
    2411 3.8197612e-20    -797.0138            0    -797.0138    14099.746 
    2412 4.1707178e-20    -797.0138            0    -797.0138    14099.746 
    2413 4.5322253e-20    -797.0138            0    -797.0138    14099.746 
    2414 4.933887e-20    -797.0138            0    -797.0138    14099.746 
    2415 5.3142697e-20    -797.0138            0    -797.0138    14099.746 
    2416 5.7523616e-20    -797.0138            0    -797.0138    14099.746 
    2417 6.1932238e-20    -797.0138            0    -797.0138    14099.746 
    2418 6.8005809e-20    -797.0138            0    -797.0138    14099.746 
    2419 7.7108506e-20    -797.0138            0    -797.0138    14099.746 
    2420 1.0801561e-19    -797.0138            0    -797.0138    14099.746 
    2421 2.4668831e-19    -797.0138            0    -797.0138    14099.746 
    2422 1.0945425e-18    -797.0138            0    -797.0138    14099.746 
    2423 6.9556858e-18    -797.0138            0    -797.0138    14099.746 
    2424 5.3227879e-17    -797.0138            0    -797.0138    14099.746 
    2425 4.5985444e-16    -797.0138            0    -797.0138    14099.746 
    2426 4.1606649e-15    -797.0138            0    -797.0138    14099.746 
    2427 2.1044986e-14    -797.0138            0    -797.0138    14099.746 
    2428 3.1053028e-15    -797.0138            0    -797.0138    14099.746 
    2429 1.2582361e-15    -797.0138            0    -797.0138    14099.746 
    2430 7.6804579e-17    -797.0138            0    -797.0138    14099.746 
    2431 7.8830176e-19    -797.0138            0    -797.0138    14099.746 
    2432 9.4183278e-21    -797.0138            0    -797.0138    14099.746 
    2433 8.7593665e-21    -797.0138            0    -797.0138    14099.746 
    2434 1.0115454e-20    -797.0138            0    -797.0138    14099.746 
    2435 1.1585558e-20    -797.0138            0    -797.0138    14099.746 
    2436 1.3106044e-20    -797.0138            0    -797.0138    14099.746 
    2437 1.4799656e-20    -797.0138            0    -797.0138    14099.746 
    2438 1.6557858e-20    -797.0138            0    -797.0138    14099.746 
    2439 1.8380348e-20    -797.0138            0    -797.0138    14099.746 
    2440 2.0326881e-20    -797.0138            0    -797.0138    14099.746 
    2441 2.227416e-20    -797.0138            0    -797.0138    14099.746 
    2442 2.4454065e-20    -797.0138            0    -797.0138    14099.746 
    2443 2.6576016e-20    -797.0138            0    -797.0138    14099.746 
    2444 2.8860379e-20    -797.0138            0    -797.0138    14099.746 
    2445 3.1217748e-20    -797.0138            0    -797.0138    14099.746 
    2446 3.3778209e-20    -797.0138            0    -797.0138    14099.746 
    2447 3.6669312e-20    -797.0138            0    -797.0138    14099.746 
    2448 4.0040185e-20    -797.0138            0    -797.0138    14099.746 
    2449 4.7384126e-20    -797.0138            0    -797.0138    14099.746 
    2450 6.7944895e-20    -797.0138            0    -797.0138    14099.746 
    2451 1.7278338e-19    -797.0138            0    -797.0138    14099.746 
    2452 7.7673431e-19    -797.0138            0    -797.0138    14099.746 
    2453 4.9444916e-18    -797.0138            0    -797.0138    14099.746 
    2454 3.7089195e-17    -797.0138            0    -797.0138    14099.746 
    2455 3.1712146e-16    -797.0138            0    -797.0138    14099.746 
    2456 3.0350483e-15    -797.0138            0    -797.0138    14099.746 
    2457 3.137499e-14    -797.0138            0    -797.0138    14099.746 
    2458 2.4272345e-13    -797.0138            0    -797.0138    14099.746 
    2459 1.1596035e-13    -797.0138            0    -797.0138    14099.746 
    2460 8.6522919e-16    -797.0138            0    -797.0138    14099.746 
    2461 5.4253222e-18    -797.0138            0    -797.0138    14099.746 
    2462 2.0911279e-19    -797.0138            0    -797.0138    14099.746 
    2463 2.5800754e-20    -797.0138            0    -797.0138    14099.746 
    2464 1.0753354e-20    -797.0138            0    -797.0138    14099.746 
    2465 9.1723445e-21    -797.0138            0    -797.0138    14099.746 
    2466 9.5846082e-21    -797.0138            0    -797.0138    14099.746 
    2467 1.0456641e-20    -797.0138            0    -797.0138    14099.746 
    2468 1.1572518e-20    -797.0138            0    -797.0138    14099.746 
    2469 1.2688455e-20    -797.0138            0    -797.0138    14099.746 
    2470 1.3997267e-20    -797.0138            0    -797.0138    14099.746 
    2471 1.5367294e-20    -797.0138            0    -797.0138    14099.746 
    2472 1.6931426e-20    -797.0138            0    -797.0138    14099.746 
    2473 1.8991164e-20    -797.0138            0    -797.0138    14099.746 
    2474 2.2813263e-20    -797.0138            0    -797.0138    14099.746 
    2475 3.1125714e-20    -797.0138            0    -797.0138    14099.746 
    2476 5.9957538e-20    -797.0138            0    -797.0138    14099.746 
    2477 1.7243203e-19    -797.0138            0    -797.0138    14099.746 
    2478 7.0843642e-19    -797.0138            0    -797.0138    14099.746 
    2479 3.5716703e-18    -797.0138            0    -797.0138    14099.746 
    2480 2.0930623e-17    -797.0138            0    -797.0138    14099.746 
    2481 1.3820868e-16    -797.0138            0    -797.0138    14099.746 
    2482 9.8993359e-16    -797.0138            0    -797.0138    14099.746 
    2483 5.9648099e-15    -797.0138            0    -797.0138    14099.746 
    2484 7.3756224e-15    -797.0138            0    -797.0138    14099.746 
    2485 6.6870914e-16    -797.0138            0    -797.0138    14099.746 
    2486 2.9349971e-17    -797.0138            0    -797.0138    14099.746 
    2487 1.0517829e-19    -797.0138            0    -797.0138    14099.746 
    2488 3.189956e-21    -797.0138            0    -797.0138    14099.746 
    2489 3.4106877e-21    -797.0138            0    -797.0138    14099.746 
    2490 3.9272286e-21    -797.0138            0    -797.0138    14099.746 
    2491 4.4975456e-21    -797.0138            0    -797.0138    14099.746 
    2492 5.0850712e-21    -797.0138            0    -797.0138    14099.746 
    2493 5.7165575e-21    -797.0138            0    -797.0138    14099.746 
    2494 6.4004241e-21    -797.0138            0    -797.0138    14099.746 
    2495 7.0863246e-21    -797.0138            0    -797.0138    14099.746 
    2496 7.8191689e-21    -797.0138            0    -797.0138    14099.746 
    2497 8.6181276e-21    -797.0138            0    -797.0138    14099.746 
    2498 9.4076209e-21    -797.0138            0    -797.0138    14099.746 
    2499 1.0201296e-20    -797.0138            0    -797.0138    14099.746 
    2500 1.1183198e-20    -797.0138            0    -797.0138    14099.746 
    2501 1.1990278e-20    -797.0138            0    -797.0138    14099.746 
    2502 1.3150455e-20    -797.0138            0    -797.0138    14099.746 
    2503 1.4259997e-20    -797.0138            0    -797.0138    14099.746 
    2504 1.6586364e-20    -797.0138            0    -797.0138    14099.746 
    2505 2.1486073e-20    -797.0138            0    -797.0138    14099.746 
    2506 4.3792541e-20    -797.0138            0    -797.0138    14099.746 
    2507 1.5119233e-19    -797.0138            0    -797.0138    14099.746 
    2508 8.142999e-19    -797.0138            0    -797.0138    14099.746 
    2509 5.3766111e-18    -797.0138            0    -797.0138    14099.746 
    2510 4.1168306e-17    -797.0138            0    -797.0138    14099.746 
    2511 3.5635408e-16    -797.0138            0    -797.0138    14099.746 
    2512 3.455632e-15    -797.0138            0    -797.0138    14099.746 
    2513 3.5840086e-14    -797.0138            0    -797.0138    14099.746 
    2514 2.4953122e-13    -797.0138            0    -797.0138    14099.746 
    2515 6.6560431e-14    -797.0138            0    -797.0138    14099.746 
    2516 1.1609715e-14    -797.0138            0    -797.0138    14099.746 
    2517 1.2962428e-17    -797.0138            0    -797.0138    14099.746 
    2518 3.5374254e-20    -797.0138            0    -797.0138    14099.746 
    2519 2.8876936e-21    -797.0138            0    -797.0138    14099.746 
    2520 2.4853439e-21    -797.0138            0    -797.0138    14099.746 
    2521 2.7785149e-21    -797.0138            0    -797.0138    14099.746 
    2522 3.1016956e-21    -797.0138            0    -797.0138    14099.746 
    2523 3.5040366e-21    -797.0138            0    -797.0138    14099.746 
    2524 3.8905886e-21    -797.0138            0    -797.0138    14099.746 
    2525  4.29657e-21    -797.0138            0    -797.0138    14099.746 
    2526 4.732715e-21    -797.0138            0    -797.0138    14099.746 
    2527 5.1912419e-21    -797.0138            0    -797.0138    14099.746 
    2528 5.6890009e-21    -797.0138            0    -797.0138    14099.746 
    2529 6.1519626e-21    -797.0138            0    -797.0138    14099.746 
    2530 6.7307661e-21    -797.0138            0    -797.0138    14099.746 
    2531 7.2690519e-21    -797.0138            0    -797.0138    14099.746 
    2532  8.09388e-21    -797.0138            0    -797.0138    14099.746 
    2533 9.0021613e-21    -797.0138            0    -797.0138    14099.746 
    2534 1.1993516e-20    -797.0138            0    -797.0138    14099.746 
    2535 2.0286233e-20    -797.0138            0    -797.0138    14099.746 
    2536 6.369428e-20    -797.0138            0    -797.0138    14099.746 
    2537 2.903256e-19    -797.0138            0    -797.0138    14099.746 
    2538 1.7379744e-18    -797.0138            0    -797.0138    14099.746 
    2539 1.1930893e-17    -797.0138            0    -797.0138    14099.746 
    2540 9.2728628e-17    -797.0138            0    -797.0138    14099.746 
    2541 7.6244583e-16    -797.0138            0    -797.0138    14099.746 
    2542 4.0726284e-15    -797.0138            0    -797.0138    14099.746 
    2543 1.2130333e-15    -797.0138            0    -797.0138    14099.746 
    2544 9.8621804e-17    -797.0138            0    -797.0138    14099.746 
    2545 7.1693283e-20    -797.0138            0    -797.0138    14099.746 
    2546 1.8444663e-21    -797.0138            0    -797.0138    14099.746 
    2547 1.4151765e-21    -797.0138            0    -797.0138    14099.746 
    2548 1.5819238e-21    -797.0138            0    -797.0138    14099.746 
    2549  1.81061e-21    -797.0138            0    -797.0138    14099.746 
    2550 2.0111467e-21    -797.0138            0    -797.0138    14099.746 
    2551 2.2651547e-21    -797.0138            0    -797.0138    14099.746 
    2552 2.508575e-21    -797.0138            0    -797.0138    14099.746 
    2553 2.7839888e-21    -797.0138            0    -797.0138    14099.746 
    2554 3.0360719e-21    -797.0138            0    -797.0138    14099.746 
    2555 3.3664975e-21    -797.0138            0    -797.0138    14099.746 
    2556 3.6508852e-21    -797.0138            0    -797.0138    14099.746 
    2557 4.0028031e-21    -797.0138            0    -797.0138    14099.746 
    2558 4.3079893e-21    -797.0138            0    -797.0138    14099.746 
    2559 4.8528748e-21    -797.0138            0    -797.0138    14099.746 
    2560 5.2830337e-21    -797.0138            0    -797.0138    14099.746 
    2561 6.9480491e-21    -797.0138            0    -797.0138    14099.746 
    2562 1.1007573e-20    -797.0138            0    -797.0138    14099.746 
    2563 3.102778e-20    -797.0138            0    -797.0138    14099.746 
    2564 1.3225747e-19    -797.0138            0    -797.0138    14099.746 
    2565 7.5395353e-19    -797.0138            0    -797.0138    14099.746 
    2566 4.9569871e-18    -797.0138            0    -797.0138    14099.746 
    2567 3.4640193e-17    -797.0138            0    -797.0138    14099.746 
    2568 1.5558425e-16    -797.0138            0    -797.0138    14099.746 
    2569 5.9020381e-17    -797.0138            0    -797.0138    14099.746 
    2570 6.1169566e-19    -797.0138            0    -797.0138    14099.746 
    2571 3.1469768e-21    -797.0138            0    -797.0138    14099.746 
    2572 8.8340463e-22    -797.0138            0    -797.0138    14099.746 
    2573 9.4840923e-22    -797.0138            0    -797.0138    14099.746 
    2574 1.0738554e-21    -797.0138            0    -797.0138    14099.746 
    2575 1.2237903e-21    -797.0138            0    -797.0138    14099.746 
    2576 1.3697771e-21    -797.0138            0    -797.0138    14099.746 
    2577 1.5390862e-21    -797.0138            0    -797.0138    14099.746 
    2578 1.6911092e-21    -797.0138            0    -797.0138    14099.746 
    2579 1.8875235e-21    -797.0138            0    -797.0138    14099.746 
    2580 2.0469737e-21    -797.0138            0    -797.0138    14099.746 
    2581 2.2506876e-21    -797.0138            0    -797.0138    14099.746 
    2582 2.453819e-21    -797.0138            0    -797.0138    14099.746 
    2583 2.7058295e-21    -797.0138            0    -797.0138    14099.746 
    2584 2.9201494e-21    -797.0138            0    -797.0138    14099.746 
    2585 3.3439563e-21    -797.0138            0    -797.0138    14099.746 
    2586 3.8782833e-21    -797.0138            0    -797.0138    14099.746 
    2587 5.6493364e-21    -797.0138            0    -797.0138    14099.746 
    2588 1.132259e-20    -797.0138            0    -797.0138    14099.746 
    2589 3.7824862e-20    -797.0138            0    -797.0138    14099.746 
    2590 1.7440939e-19    -797.0138            0    -797.0138    14099.746 
    2591 9.9888454e-19    -797.0138            0    -797.0138    14099.746 
    2592 6.5064565e-18    -797.0138            0    -797.0138    14099.746 
    2593 4.3106493e-17    -797.0138            0    -797.0138    14099.746 
    2594 1.3786713e-16    -797.0138            0    -797.0138    14099.746 
    2595 2.2180584e-17    -797.0138            0    -797.0138    14099.746 
    2596 4.7887371e-18    -797.0138            0    -797.0138    14099.746 
    2597 1.2244189e-19    -797.0138            0    -797.0138    14099.746 
    2598 9.5311929e-22    -797.0138            0    -797.0138    14099.746 
    2599 4.7152049e-22    -797.0138            0    -797.0138    14099.746 
    2600 5.4476923e-22    -797.0138            0    -797.0138    14099.746 
    2601 6.3064458e-22    -797.0138            0    -797.0138    14099.746 
    2602 7.138268e-22    -797.0138            0    -797.0138    14099.746 
    2603 8.0963601e-22    -797.0138            0    -797.0138    14099.746 
    2604 9.0471626e-22    -797.0138            0    -797.0138    14099.746 
    2605 1.0137718e-21    -797.0138            0    -797.0138    14099.746 
    2606 1.1166848e-21    -797.0138            0    -797.0138    14099.746 
    2607 1.2212783e-21    -797.0138            0    -797.0138    14099.746 
    2608 1.3592221e-21    -797.0138            0    -797.0138    14099.746 
    2609 1.4869621e-21    -797.0138            0    -797.0138    14099.746 
    2610 1.6509498e-21    -797.0138            0    -797.0138    14099.746 
    2611 1.8008869e-21    -797.0138            0    -797.0138    14099.746 
    2612 2.0968289e-21    -797.0138            0    -797.0138    14099.746 
    2613 2.452011e-21    -797.0138            0    -797.0138    14099.746 
    2614 3.6372515e-21    -797.0138            0    -797.0138    14099.746 
    2615 6.9618443e-21    -797.0138            0    -797.0138    14099.746 
    2616 2.1342125e-20    -797.0138            0    -797.0138    14099.746 
    2617 8.572976e-20    -797.0138            0    -797.0138    14099.746 
    2618 4.3298659e-19    -797.0138            0    -797.0138    14099.746 
    2619 2.5149741e-18    -797.0138            0    -797.0138    14099.746 
    2620 1.6712828e-17    -797.0138            0    -797.0138    14099.746 
    2621 1.2554677e-16    -797.0138            0    -797.0138    14099.746 
    2622 1.0622791e-15    -797.0138            0    -797.0138    14099.746 
    2623 9.9327469e-15    -797.0138            0    -797.0138    14099.746 
    2624 8.6261917e-14    -797.0138            0    -797.0138    14099.746 
    2625 1.5268897e-13    -797.0138            0    -797.0138    14099.746 
    2626 5.2475068e-15    -797.0138            0    -797.0138    14099.746 
Loop time of 580.077 on 24 procs for 891 steps with 127 atoms

98.6% CPU use with 24 MPI tasks x no OpenMP threads

Minimization stats:
  Stopping criterion = energy tolerance
  Energy initial, next-to-last, final = 
        -797.013795494     -797.013795494     -797.013795494
  Force two-norm initial, final = 3.35438e-08 3.34551e-08
  Force max component initial, final = 8.44812e-09 1.16519e-08
  Final line search alpha, max atom move = 0 0
  Iterations, force evaluations = 891 891

MPI task timing breakdown:
Section |  min time  |  avg time  |  max time  |%varavg| %total
---------------------------------------------------------------
Pair    | 212.95     | 381.52     | 519.46     | 478.0 | 65.77
Neigh   | 0          | 0          | 0          |   0.0 |  0.00
Comm    | 0.090589   | 138.02     | 306.59     | 794.8 | 23.79
Output  | 0.15144    | 0.15314    | 0.15382    |   0.1 |  0.03
Modify  | 0.15755    | 0.15887    | 0.15974    |   0.2 |  0.03
Other   |            | 60.22      |            |       | 10.38

Nlocal:    5.29167 ave 7 max 3 min
Histogram: 4 0 1 0 0 7 0 8 0 4
Nghost:    759.125 ave 800 max 714 min
Histogram: 7 1 0 0 0 4 4 0 4 4
Neighs:    0 ave 0 max 0 min
Histogram: 24 0 0 0 0 0 0 0 0 0
FullNghs:  1067.5 ave 1406 max 617 min
Histogram: 4 0 1 0 3 4 0 8 0 4

Total # of neighbors = 25620
Ave neighs/atom = 201.732
Neighbor list builds = 0
Dangerous builds = 0
Total wall time: 0:28:56
