LAMMPS (12 Dec 2018)
Processor partition = 6
Reading data file ...
  orthogonal box = (0 0 0) to (10.0025 12.3537 10.615)
  2 by 4 by 3 MPI processor grid
  reading atoms ...
  127 atoms
Reading potential file lammps-force.nnp with DATE: 20201105
Reading potential file lammps_rot.nnp with DATE: 20211226
Neighbor list info ...
  update every 1 steps, delay 0 steps, check yes
  max neighbors/atom: 2000, page size: 100000
  master list distance cutoff = 8
  ghost atom cutoff = 8
  binsize = 4, bins = 3 4 3
  2 neighbor lists, perpetual/occasional/extra = 2 0 0
  (1) pair nnp3v, perpetual
      attributes: full, newton on
      pair build: full/bin/atomonly
      stencil: full/bin/3d
      bin: standard
  (2) pair nnp3v_vf, perpetual, copy from (1)
      attributes: full, newton on
      pair build: copy
      stencil: none
      bin: none
Setting up quickmin style minimization ...
  Unit style    : metal
  Current step  : 0
Per MPI rank memory allocation (min/avg/max) = 3.111 | 3.226 | 3.362 Mbytes
Step Temp E_pair E_mol TotEng Press 
       0            0   -796.79482            0   -796.79482    13324.103 
      24   0.66844098   -796.99042            0   -796.97954    13893.519 
Loop time of 14.6892 on 24 procs for 24 steps with 127 atoms

98.5% CPU use with 24 MPI tasks x no OpenMP threads

Minimization stats:
  Stopping criterion = energy tolerance
  Energy initial, next-to-last, final = 
        -796.794816724     -796.990398619     -796.990424995
  Force two-norm initial, final = 1.98977 0.177561
  Force max component initial, final = 0.330078 0.036579
  Final line search alpha, max atom move = 0 0
  Iterations, force evaluations = 24 24

MPI task timing breakdown:
Section |  min time  |  avg time  |  max time  |%varavg| %total
---------------------------------------------------------------
Pair    | 6.0098     | 10.682     | 14.682     |  78.2 | 72.72
Neigh   | 0          | 0          | 0          |   0.0 |  0.00
Comm    | 0.0056772  | 4.0055     | 8.6783     | 127.8 | 27.27
Output  | 0          | 0          | 0          |   0.0 |  0.00
Modify  | 0          | 0          | 0          |   0.0 |  0.00
Other   |            | 0.001157   |            |       |  0.01

Nlocal:    5.29167 ave 7 max 3 min
Histogram: 4 0 0 0 0 9 0 7 0 4
Nghost:    759.125 ave 797 max 714 min
Histogram: 7 1 0 0 0 2 6 0 0 8
Neighs:    0 ave 0 max 0 min
Histogram: 24 0 0 0 0 0 0 0 0 0
FullNghs:  1068 ave 1413 max 614 min
Histogram: 4 0 0 0 5 4 0 7 0 4

Total # of neighbors = 25632
Ave neighs/atom = 201.827
Neighbor list builds = 0
Dangerous builds = 0
Setting up quickmin style minimization ...
  Unit style    : metal
  Current step  : 0
Per MPI rank memory allocation (min/avg/max) = 5.112 | 5.226 | 5.362 Mbytes
Step Temp E_pair E_mol TotEng Press 
       0            0   -796.18639            0   -796.18639    11909.312 
       1   0.49304106   -796.18639            0   -796.17836    11915.851 
       2    3.3611473   -796.20981            0   -796.15506    12026.138 
       3    9.1465956   -796.25467            0    -796.1057    12261.782 
       4    17.680795    -796.3157            0   -796.02774    12644.334 
       5    27.574753   -796.38416            0   -795.93505    13171.134 
       6    35.786472   -796.45113            0   -795.86829    13764.839 
       7     41.08525   -796.51346            0   -795.84431    14261.462 
       8    47.958752   -796.57204            0   -795.79094    14526.606 
       9    57.122072   -796.62628            0   -795.69595    14594.903 
      10    67.487153   -796.67563            0   -795.57648    14659.815 
      11    78.484988   -796.71856            0   -795.44029    14828.812 
      12    85.489398   -796.75345            0    -795.3611    14917.521 
      13    35.514287    -796.7639            0   -796.18549    14330.982 
      14  0.018618488    -796.7639            0    -796.7636    13860.219 
      15  0.073723263   -796.76451            0   -796.76331    13859.267 
      16   0.16828605   -796.76568            0   -796.76294    13857.349 
      17   0.29795162   -796.76732            0   -796.76247    13854.887 
      18   0.45606628   -796.76931            0   -796.76188     13852.56 
      19   0.63229605   -796.77155            0   -796.76125     13851.26 
      20   0.80283815   -796.77399            0   -796.76092    13851.835 
      21   0.93613151   -796.77663            0   -796.76139    13854.565 
      22    1.0828854   -796.77946            0   -796.76182    13859.707 
      23    1.2846822   -796.78248            0   -796.76156    13867.079 
      24        1.516   -796.78571            0   -796.76102    13875.845 
      25    1.7621788   -796.78912            0   -796.76042    13885.568 
      26     2.017835   -796.79268            0   -796.75981    13896.098 
      27     2.279826   -796.79636            0   -796.75923    13907.382 
      28     2.545391   -796.80014            0   -796.75868    13919.367 
      29    2.8117537     -796.804            0    -796.7582        13932 
      30    3.0761628   -796.80791            0   -796.75781    13945.234 
      31    3.3359614   -796.81185            0   -796.75751    13959.026 
      32    3.5886148   -796.81578            0   -796.75733    13973.316 
      33    3.8318287   -796.81969            0   -796.75728    13988.041 
      34    4.0635502   -796.82356            0   -796.75738     14003.14 
      35    4.2820627   -796.82736            0   -796.75762     14018.55 
      36    4.4859631   -796.83108            0   -796.75802     14034.21 
      37    4.6743141   -796.83471            0   -796.75858    14050.059 
      38    4.8465384   -796.83823            0   -796.75929    14066.037 
      39    5.0024801   -796.84163            0   -796.76016    14082.086 
      40    5.1423781   -796.84494            0   -796.76119     14098.14 
      41    5.2664183   -796.84815            0   -796.76237    14114.116 
      42    5.3761003   -796.85124            0   -796.76368    14130.117 
      43    5.4691838   -796.85421            0   -796.76514    14145.665 
      44     5.543361   -796.85707            0   -796.76678    14162.305 
      45    5.2326954   -796.85966            0   -796.77444    14167.067 
      46    1.3127663   -796.86064            0   -796.83926    14131.013 
      47 0.0008781473   -796.86064            0   -796.86063    14113.614 
      48 0.0029864729   -796.86067            0   -796.86062    14113.399 
      49 0.0066102437   -796.86073            0   -796.86062    14112.983 
      50  0.011960927   -796.86082            0   -796.86063    14112.437 
      51  0.019511088   -796.86095            0   -796.86063      14111.9 
      52  0.029964995   -796.86111            0   -796.86062    14111.607 
      53  0.043166604   -796.86131            0   -796.86061    14111.849 
      54  0.057090871   -796.86155            0   -796.86062    14112.749 
      55  0.071378812   -796.86183            0   -796.86067    14114.185 
      56  0.086974904   -796.86214            0   -796.86072    14115.982 
      57   0.10397956   -796.86247            0   -796.86078    14118.022 
      58   0.12226398   -796.86284            0   -796.86084    14120.253 
      59   0.14174093   -796.86323            0   -796.86092    14122.658 
      60   0.16233143   -796.86365            0     -796.861    14125.233 
      61   0.18394969   -796.86409            0    -796.8611    14127.973 
      62   0.20650487   -796.86456            0    -796.8612    14130.874 
      63    0.2299029   -796.86506            0   -796.86131    14133.931 
      64   0.25404719   -796.86558            0   -796.86144    14137.139 
      65   0.27883929   -796.86611            0   -796.86157    14140.485 
      66   0.30417811   -796.86667            0   -796.86172    14143.966 
      67   0.32996326   -796.86725            0   -796.86187    14147.579 
      68   0.35609522   -796.86785            0   -796.86205    14151.315 
      69     0.382473   -796.86846            0   -796.86223    14155.168 
      70   0.40899761   -796.86909            0   -796.86243    14159.125 
      71   0.43557146   -796.86973            0   -796.86264    14163.175 
      72   0.46209698   -796.87039            0   -796.86286    14167.318 
      73   0.48847845   -796.87106            0   -796.86311    14171.545 
      74   0.51462684   -796.87175            0   -796.86337     14175.85 
      75   0.54044877   -796.87245            0   -796.86365    14180.221 
      76   0.56586404   -796.87317            0   -796.86395    14184.647 
      77    0.5907798    -796.8739            0   -796.86428     14189.12 
      78   0.61513726   -796.87464            0   -796.86462    14193.627 
      79   0.63881338   -796.87539            0   -796.86498    14198.163 
      80   0.66184566   -796.87615            0   -796.86537    14202.702 
      81   0.68386183   -796.87692            0   -796.86578    14207.269 
      82   0.70521053   -796.87771            0   -796.86622    14211.751 
      83   0.71770142   -796.87849            0    -796.8668    14216.266 
      84   0.62588723   -796.87918            0   -796.86899    14218.383 
      85  0.059180851   -796.87932            0   -796.87835    14211.468 
      86   0.03507459   -796.87947            0    -796.8789    14212.111 
      87  0.037618124   -796.87965            0   -796.87904    14213.059 
      88  0.042626626   -796.87984            0   -796.87914    14214.069 
      89  0.047918462   -796.88004            0   -796.87926     14215.14 
      90   0.05345412   -796.88025            0   -796.87938    14216.263 
      91  0.059208496   -796.88047            0   -796.87951    14217.441 
      92  0.065167941   -796.88071            0   -796.87965     14218.67 
      93  0.071313361   -796.88096            0    -796.8798    14219.948 
      94  0.077628529   -796.88122            0   -796.87995    14221.272 
      95   0.08409458   -796.88148            0   -796.88012     14222.64 
      96  0.090694426   -796.88177            0   -796.88029    14224.049 
      97  0.097408832   -796.88206            0   -796.88047    14225.496 
      98   0.10422037   -796.88236            0   -796.88066    14226.973 
      99   0.11111026   -796.88267            0   -796.88086    14228.485 
     100    0.1180599     -796.883            0   -796.88107    14230.021 
     101   0.12504886   -796.88333            0   -796.88129     14231.59 
     102   0.13205147   -796.88368            0   -796.88152    14233.164 
     103   0.13902021   -796.88403            0   -796.88177    14234.787 
     104   0.14571747    -796.8844            0   -796.88202    14236.345 
     105   0.15091713   -796.88477            0   -796.88231     14238.07 
     106   0.14577583   -796.88514            0   -796.88276    14239.121 
     107   0.09174686   -796.88542            0   -796.88392    14240.255 
     108  0.013914648   -796.88553            0    -796.8853    14239.115 
     109  0.013762848   -796.88563            0   -796.88541    14239.566 
     110  0.015857221   -796.88575            0   -796.88549    14240.035 
     111   0.01810409   -796.88588            0   -796.88558    14240.542 
     112   0.02047514   -796.88601            0   -796.88568    14241.077 
     113   0.02296685   -796.88616            0   -796.88578    14241.641 
     114  0.025572466   -796.88631            0   -796.88589    14242.234 
     115  0.028286163   -796.88647            0   -796.88601    14242.853 
     116  0.031101313   -796.88664            0   -796.88613    14243.498 
     117   0.03401146   -796.88681            0   -796.88626    14244.166 
     118  0.037009692     -796.887            0    -796.8864    14244.858 
     119   0.04008922   -796.88719            0   -796.88654     14245.57 
     120  0.043242862    -796.8874            0   -796.88669    14246.302 
     121  0.046463664   -796.88761            0   -796.88685    14247.053 
     122  0.049744186   -796.88782            0   -796.88701    14247.819 
     123  0.053077538   -796.88805            0   -796.88719    14248.601 
     124  0.056455866   -796.88828            0   -796.88736    14249.395 
     125  0.059873052   -796.88853            0   -796.88755    14250.201 
     126  0.063319726   -796.88877            0   -796.88774    14251.015 
     127  0.066793148   -796.88903            0   -796.88794     14251.84 
     128  0.070275864    -796.8893            0   -796.88815    14252.663 
     129  0.073782349   -796.88957            0   -796.88837    14253.507 
     130  0.077225331   -796.88985            0   -796.88859    14254.307 
     131  0.080621181   -796.89013            0   -796.88882     14255.23 
     132  0.082205188   -796.89043            0   -796.88909    14255.756 
     133  0.072899284   -796.89069            0    -796.8895    14257.088 
     134  0.022281075   -796.89083            0   -796.89047    14255.704 
     135 0.0026898722   -796.89087            0   -796.89083    14255.858 
     136 0.0034172547   -796.89092            0   -796.89087    14256.149 
     137 0.0041089187   -796.89099            0   -796.89092    14256.346 
     138 0.0048935128   -796.89105            0   -796.89097    14256.528 
     139 0.0057503124   -796.89113            0   -796.89103    14256.719 
     140 0.0066713602   -796.89121            0    -796.8911    14256.925 
     141 0.0076540754   -796.89129            0   -796.89117    14257.145 
     142 0.0086965435   -796.89138            0   -796.89124    14257.379 
     143 0.0097967636   -796.89148            0   -796.89132    14257.625 
     144  0.010952626   -796.89159            0   -796.89141    14257.884 
     145  0.012161924    -796.8917            0    -796.8915    14258.155 
     146  0.013422359   -796.89181            0    -796.8916    14258.437 
     147  0.014731549   -796.89194            0    -796.8917     14258.73 
     148  0.016087035   -796.89206            0    -796.8918    14259.032 
     149  0.017486289    -796.8922            0   -796.89191    14259.345 
     150  0.018926723   -796.89234            0   -796.89203    14259.665 
     151  0.020405699   -796.89248            0   -796.89215    14259.994 
     152  0.021920531   -796.89263            0   -796.89228     14260.33 
     153  0.023468493   -796.89279            0   -796.89241    14260.673 
     154  0.025046836   -796.89295            0   -796.89255    14261.021 
     155  0.026652783   -796.89312            0   -796.89269    14261.375 
     156  0.028283441    -796.8933            0   -796.89284    14261.733 
     157  0.029936141   -796.89348            0   -796.89299    14262.095 
     158  0.031608032   -796.89367            0   -796.89315    14262.459 
     159  0.033296479   -796.89386            0   -796.89332    14262.824 
     160  0.034998471   -796.89406            0   -796.89349    14263.189 
     161  0.036711805   -796.89426            0   -796.89367    14263.556 
     162    0.0384325   -796.89447            0   -796.89385    14263.917 
     163  0.040161489   -796.89468            0   -796.89403     14264.29 
     164  0.041885984    -796.8949            0   -796.89422    14264.624 
     165  0.043639283   -796.89513            0   -796.89442    14265.062 
     166  0.045343988   -796.89535            0   -796.89461    14265.162 
     167  0.047782418    -796.8956            0   -796.89482     14266.37 
     168  0.054639621   -796.89577            0   -796.89488    14263.867 
     169  0.087063185   -796.89603            0   -796.89462     14271.78 
     170 0.0042082497   -796.89604            0   -796.89597     14269.08 
     171 0.0040594073   -796.89604            0   -796.89598    14267.519 
     172 0.0026549987   -796.89606            0   -796.89601    14266.402 
     173  0.001644478   -796.89608            0   -796.89606     14265.93 
     174 0.0016790441   -796.89612            0    -796.8961    14265.836 
     175 0.0019875974   -796.89617            0   -796.89613    14265.871 
     176 0.0023419462   -796.89622            0   -796.89618    14265.935 
     177 0.0027234665   -796.89627            0   -796.89622    14266.006 
     178 0.0031315477   -796.89633            0   -796.89628    14266.082 
     179 0.0035655933   -796.89639            0   -796.89633    14266.162 
     180 0.0040249303   -796.89645            0   -796.89639    14266.247 
     181 0.0045088521   -796.89652            0   -796.89645    14266.336 
     182 0.0050166143    -796.8966            0   -796.89652    14266.429 
     183 0.0055474417   -796.89668            0   -796.89659    14266.526 
     184 0.0061005251   -796.89676            0   -796.89666    14266.627 
     185 0.0066750233   -796.89684            0   -796.89673    14266.731 
     186 0.0072700665   -796.89693            0   -796.89681    14266.838 
     187 0.0078847585   -796.89703            0    -796.8969    14266.948 
     188  0.008518179   -796.89712            0   -796.89698    14267.061 
     189 0.0091693821   -796.89722            0   -796.89707    14267.177 
     190 0.0098374008   -796.89733            0   -796.89717    14267.294 
     191  0.010521253   -796.89744            0   -796.89726    14267.414 
     192  0.011219919   -796.89755            0   -796.89736    14267.534 
     193  0.011932398   -796.89766            0   -796.89747    14267.656 
     194  0.012657662   -796.89778            0   -796.89757    14267.779 
     195   0.01339469    -796.8979            0   -796.89768    14267.903 
     196  0.014142413   -796.89803            0    -796.8978    14268.027 
     197  0.014899903   -796.89815            0   -796.89791    14268.152 
     198  0.015666002   -796.89829            0   -796.89803    14268.277 
     199  0.016439831   -796.89842            0   -796.89815    14268.402 
     200  0.017219873   -796.89856            0   -796.89828    14268.525 
     201  0.018006193    -796.8987            0    -796.8984     14268.65 
     202   0.01879473   -796.89884            0   -796.89854    14268.769 
     203  0.019592873   -796.89899            0   -796.89867    14268.901 
     204  0.020370274   -796.89914            0    -796.8988    14268.982 
     205  0.021160015   -796.89929            0   -796.89894    14269.239 
     206   0.02070704   -796.89942            0   -796.89909    14268.845 
     207 0.0080153558   -796.89948            0   -796.89935    14269.373 
     208 0.00035191755   -796.89949            0   -796.89949    14269.161 
     209 0.00041496901   -796.89951            0    -796.8995     14269.08 
     210 0.00048363406   -796.89953            0   -796.89952    14269.043 
     211 0.0005873719   -796.89955            0   -796.89954     14269.04 
     212 0.00071876522   -796.89958            0   -796.89957    14269.053 
     213 0.00086682274   -796.89961            0   -796.89959    14269.073 
     214 0.0010284302   -796.89964            0   -796.89962    14269.095 
     215 0.0012031038   -796.89967            0   -796.89966    14269.119 
     216  0.001390632   -796.89971            0   -796.89969    14269.145 
     217 0.0015907728   -796.89975            0   -796.89973    14269.172 
     218 0.0018032608   -796.89979            0   -796.89976    14269.201 
     219 0.0020278128   -796.89984            0   -796.89981    14269.231 
     220 0.0022641291   -796.89989            0   -796.89985    14269.263 
     221 0.0025118945   -796.89994            0    -796.8999    14269.296 
     222 0.0027707788   -796.89999            0   -796.89994     14269.33 
     223 0.0030404374   -796.90005            0       -796.9    14269.366 
     224 0.0033205117    -796.9001            0   -796.90005    14269.403 
     225 0.0036106302   -796.90016            0   -796.90011    14269.441 
     226 0.0039104088   -796.90023            0   -796.90016    14269.479 
     227 0.0042194517   -796.90029            0   -796.90022    14269.519 
     228 0.0045373519   -796.90036            0   -796.90029    14269.559 
     229  0.004863692   -796.90043            0   -796.90035    14269.601 
     230 0.0051980456    -796.9005            0   -796.90042    14269.642 
     231 0.0055399761   -796.90058            0   -796.90049    14269.685 
     232  0.005889034   -796.90066            0   -796.90056    14269.727 
     233 0.0062447684   -796.90074            0   -796.90063     14269.77 
     234 0.0066067207   -796.90082            0   -796.90071    14269.813 
     235 0.0069744248    -796.9009            0   -796.90079    14269.857 
     236 0.0073474131   -796.90099            0   -796.90087      14269.9 
     237 0.0077252137   -796.90108            0   -796.90095    14269.943 
     238 0.0081073395   -796.90117            0   -796.90103    14269.987 
     239 0.0084933323   -796.90126            0   -796.90112     14270.03 
     240 0.0088826337   -796.90135            0   -796.90121    14270.072 
     241 0.0092749716   -796.90145            0    -796.9013    14270.115 
     242 0.0096689457   -796.90154            0   -796.90139    14270.155 
     243  0.010065058   -796.90164            0   -796.90148    14270.201 
     244  0.010431398   -796.90174            0   -796.90157    14270.222 
     245  0.010510306   -796.90184            0   -796.90167     14270.33 
     246 0.0070600415   -796.90193            0   -796.90181    14270.079 
     247 0.0002900576   -796.90194            0   -796.90194     14270.11 
     248 0.00047264715   -796.90196            0   -796.90195    14270.174 
     249 0.00054730916   -796.90198            0   -796.90197    14270.183 
     250 0.00063746948     -796.902            0   -796.90199    14270.191 
     251 0.00073415098   -796.90203            0   -796.90202      14270.2 
     252 0.00083718551   -796.90206            0   -796.90204     14270.21 
     253 0.00094645377   -796.90209            0   -796.90207     14270.22 
     254 0.0010618194   -796.90212            0    -796.9021     14270.23 
     255 0.0011831419   -796.90215            0   -796.90213    14270.241 
     256 0.0013102717   -796.90218            0   -796.90216    14270.252 
     257 0.0014430529   -796.90222            0    -796.9022    14270.264 
     258 0.0015813232   -796.90226            0   -796.90223    14270.277 
     259 0.0017249124    -796.9023            0   -796.90227    14270.289 
     260 0.0018736432   -796.90234            0   -796.90231    14270.302 
     261 0.0020273334   -796.90238            0   -796.90235    14270.315 
     262 0.0021857945   -796.90242            0   -796.90239    14270.329 
     263 0.0023488322   -796.90247            0   -796.90243    14270.342 
     264 0.0025162454   -796.90252            0   -796.90248    14270.356 
     265 0.0026878312   -796.90257            0   -796.90252     14270.37 
     266 0.0028633761   -796.90262            0   -796.90257    14270.384 
     267 0.0030426726   -796.90267            0   -796.90262    14270.399 
     268 0.0032254874   -796.90272            0   -796.90267    14270.413 
     269 0.0034116298   -796.90278            0   -796.90272    14270.427 
     270 0.0036007973   -796.90283            0   -796.90278    14270.441 
     271 0.0037929417   -796.90289            0   -796.90283    14270.456 
     272 0.0039873139   -796.90295            0   -796.90289    14270.469 
     273 0.0041847798   -796.90301            0   -796.90294    14270.486 
     274 0.0043791953   -796.90307            0     -796.903    14270.489 
     275 0.0045632558   -796.90313            0   -796.90306    14270.535 
     276 0.0045139328    -796.9032            0   -796.90312    14270.443 
     277 0.0030135509   -796.90324            0   -796.90319    14270.683 
     278 0.00025451099   -796.90326            0   -796.90325    14270.509 
     279 0.00029894463   -796.90327            0   -796.90327    14270.474 
     280 0.00034496156   -796.90329            0   -796.90328    14270.479 
     281 0.00039997611   -796.90331            0    -796.9033    14270.482 
     282 0.00045894428   -796.90332            0   -796.90332    14270.486 
     283 0.00052166774   -796.90334            0   -796.90334    14270.489 
     284 0.00058809635   -796.90337            0   -796.90336    14270.493 
     285 0.00065814369   -796.90339            0   -796.90338    14270.497 
     286 0.00073173118   -796.90341            0    -796.9034    14270.502 
     287 0.00080876954   -796.90344            0   -796.90343    14270.506 
     288 0.00088916948   -796.90347            0   -796.90345     14270.51 
     289 0.00097283436   -796.90349            0   -796.90348    14270.515 
     290 0.0010596665   -796.90352            0   -796.90351     14270.52 
     291 0.0011495615   -796.90355            0   -796.90353    14270.525 
     292 0.0012424146   -796.90358            0   -796.90356    14270.529 
     293 0.0013381132   -796.90362            0    -796.9036    14270.534 
     294 0.0014365475   -796.90365            0   -796.90363    14270.539 
     295 0.0015375944   -796.90369            0   -796.90366    14270.544 
     296 0.0016411443   -796.90372            0    -796.9037    14270.549 
     297  0.001747055   -796.90376            0   -796.90373    14270.554 
     298 0.0018552383    -796.9038            0   -796.90377    14270.559 
     299 0.0019654861   -796.90384            0    -796.9038    14270.564 
     300 0.0020778419   -796.90388            0   -796.90384    14270.569 
     301 0.0021917441   -796.90392            0   -796.90388    14270.572 
     302 0.0023080291   -796.90396            0   -796.90392     14270.58 
     303 0.0024232674     -796.904            0   -796.90397    14270.575 
     304 0.0025407836   -796.90405            0   -796.90401    14270.606 
     305 0.0026014067   -796.90409            0   -796.90405    14270.532 
     306 0.0023620115   -796.90413            0   -796.90409    14270.741 
     307 0.00079327733   -796.90415            0   -796.90414    14270.461 
     308 0.00013099944   -796.90416            0   -796.90416    14270.531 
     309 0.00013816945   -796.90417            0   -796.90417    14270.557 
     310 0.00016282316   -796.90418            0   -796.90418    14270.561 
     311 0.00019283602   -796.90419            0   -796.90419    14270.562 
     312 0.00022544743    -796.9042            0    -796.9042    14270.563 
     313 0.00026047707   -796.90422            0   -796.90421    14270.564 
     314 0.00029788139   -796.90423            0   -796.90423    14270.565 
     315 0.00033761811   -796.90425            0   -796.90424    14270.566 
     316 0.00037964155   -796.90426            0   -796.90426    14270.567 
     317 0.00042390345   -796.90428            0   -796.90428    14270.568 
     318 0.00047035278    -796.9043            0   -796.90429    14270.569 
     319 0.0005189359   -796.90432            0   -796.90431     14270.57 
     320 0.00056959657   -796.90434            0   -796.90433    14270.571 
     321 0.00062227605   -796.90436            0   -796.90435    14270.572 
     322 0.00067691316   -796.90438            0   -796.90437    14270.573 
     323 0.00073344436   -796.90441            0   -796.90439    14270.574 
     324 0.00079180376   -796.90443            0   -796.90442    14270.575 
     325 0.00085192329   -796.90446            0   -796.90444    14270.576 
     326 0.00091373266   -796.90448            0   -796.90447    14270.577 
     327 0.00097715961   -796.90451            0   -796.90449    14270.577 
     328 0.0010421297   -796.90453            0   -796.90452    14270.578 
     329 0.0011085669   -796.90456            0   -796.90455    14270.579 
     330 0.0011763928   -796.90459            0   -796.90457    14270.579 
     331 0.0012455282   -796.90462            0    -796.9046    14270.579 
     332 0.0013158898   -796.90465            0   -796.90463    14270.579 
     333 0.0013873992   -796.90468            0   -796.90466     14270.58 
     334 0.0014599592   -796.90472            0   -796.90469    14270.579 
     335 0.0015335172   -796.90475            0   -796.90472    14270.579 
     336 0.0016078887   -796.90478            0   -796.90476    14270.578 
     337 0.0016832631   -796.90482            0   -796.90479    14270.579 
     338 0.0017585483   -796.90485            0   -796.90482    14270.574 
     339 0.0018355607   -796.90489            0   -796.90486    14270.587 
     340 0.0018909874   -796.90492            0   -796.90489    14270.535 
     341 0.0018008761   -796.90496            0   -796.90493    14270.699 
     342 0.00062886153   -796.90497            0   -796.90496    14270.437 
     343 2.8096551e-05   -796.90498            0   -796.90498    14270.472 
     344 3.6214315e-05   -796.90498            0   -796.90498    14270.509 
     345 4.456655e-05   -796.90498            0   -796.90498    14270.532 
     346 5.5112194e-05   -796.90499            0   -796.90499    14270.541 
     347 6.8102343e-05     -796.905            0     -796.905    14270.544 
     348 8.2853305e-05     -796.905            0     -796.905    14270.544 
     349 9.9080443e-05   -796.90501            0   -796.90501    14270.544 
     350 0.00011671349   -796.90502            0   -796.90502    14270.543 
     351 0.00013572392   -796.90503            0   -796.90503    14270.543 
     352 0.00015608949   -796.90504            0   -796.90504    14270.542 
     353 0.00017778737   -796.90505            0   -796.90505    14270.541 
     354 0.00020079304   -796.90506            0   -796.90506    14270.541 
     355 0.00022508046   -796.90507            0   -796.90507     14270.54 
     356 0.00025062202   -796.90509            0   -796.90508    14270.539 
     357 0.00027738859    -796.9051            0    -796.9051    14270.538 
     358 0.00030534958   -796.90511            0   -796.90511    14270.537 
     359 0.00033447296   -796.90513            0   -796.90512    14270.536 
     360 0.00036472524   -796.90514            0   -796.90514    14270.534 
     361 0.00039607155   -796.90516            0   -796.90515    14270.533 
     362 0.00042847567   -796.90518            0   -796.90517    14270.532 
     363 0.00046190009   -796.90519            0   -796.90519     14270.53 
     364  0.000496306   -796.90521            0    -796.9052    14270.528 
     365 0.00053165342   -796.90523            0   -796.90522    14270.526 
     366 0.00056790104   -796.90525            0   -796.90524    14270.524 
     367 0.00060500645   -796.90527            0   -796.90526    14270.522 
     368 0.00064292611   -796.90529            0   -796.90528     14270.52 
     369 0.00068161542   -796.90531            0    -796.9053    14270.518 
     370 0.00072102875   -796.90533            0   -796.90532    14270.515 
     371 0.00076111945   -796.90536            0   -796.90534    14270.512 
     372 0.00080183949   -796.90538            0   -796.90537    14270.509 
     373 0.00084314125    -796.9054            0   -796.90539    14270.506 
     374 0.00088497245   -796.90543            0   -796.90541    14270.503 
     375 0.00092729062   -796.90545            0   -796.90544    14270.499 
     376 0.00097001721   -796.90548            0   -796.90546    14270.495 
     377 0.0010131594    -796.9055            0   -796.90548    14270.492 
     378 0.0010561557   -796.90553            0   -796.90551    14270.486 
     379 0.0010971972   -796.90555            0   -796.90554    14270.488 
     380 0.0010987771   -796.90558            0   -796.90556    14270.457 
     381 0.00075021736    -796.9056            0   -796.90559    14270.525 
     382 3.9605583e-05   -796.90561            0    -796.9056    14270.473 
     383 5.7931048e-05   -796.90561            0   -796.90561    14270.456 
     384 6.6836862e-05   -796.90562            0   -796.90562    14270.456 
     385 7.7669145e-05   -796.90562            0   -796.90562    14270.454 
     386 8.9291876e-05   -796.90563            0   -796.90563    14270.453 
     387 0.00010166952   -796.90564            0   -796.90564    14270.451 
     388 0.00011479214   -796.90565            0   -796.90565     14270.45 
     389 0.00012864333   -796.90566            0   -796.90565    14270.448 
     390 0.00014320811   -796.90567            0   -796.90566    14270.446 
     391 0.00015846935   -796.90568            0   -796.90567    14270.444 
     392 0.00017440993   -796.90569            0   -796.90568    14270.442 
     393 0.00019101122    -796.9057            0   -796.90569     14270.44 
     394 0.00020825436   -796.90571            0    -796.9057    14270.437 
     395 0.00022611905   -796.90572            0   -796.90572    14270.435 
     396  0.000244585   -796.90573            0   -796.90573    14270.432 
     397 0.00026363006   -796.90575            0   -796.90574    14270.429 
     398 0.0002832329   -796.90576            0   -796.90575    14270.426 
     399 0.00030336903   -796.90577            0   -796.90577    14270.423 
     400 0.00032401736   -796.90579            0   -796.90578    14270.419 
     401 0.00034514855    -796.9058            0    -796.9058    14270.416 
     402 0.00036674741   -796.90582            0   -796.90581    14270.412 
     403 0.00038876673   -796.90583            0   -796.90583    14270.408 
     404 0.00041122742   -796.90585            0   -796.90584    14270.404 
     405 0.00043397841   -796.90586            0   -796.90586    14270.399 
     406 0.00045723728   -796.90588            0   -796.90587    14270.397 
     407 0.00047979014    -796.9059            0   -796.90589    14270.385 
     408 0.00050065342   -796.90592            0   -796.90591    14270.401 
     409 0.00048634489   -796.90593            0   -796.90593    14270.335 
     410 0.00030097918   -796.90594            0   -796.90594    14270.448 
     411 3.0464688e-05   -796.90595            0   -796.90595    14270.393 
     412 3.0420824e-05   -796.90595            0   -796.90595     14270.37 
     413 3.4414441e-05   -796.90596            0   -796.90596    14270.367 
     414 4.0780774e-05   -796.90596            0   -796.90596    14270.365 
     415 4.7669539e-05   -796.90597            0   -796.90597    14270.364 
     416 5.5068413e-05   -796.90597            0   -796.90597    14270.362 
     417 6.2968663e-05   -796.90598            0   -796.90598     14270.36 
     418 7.1361402e-05   -796.90598            0   -796.90598    14270.358 
     419 8.0237049e-05   -796.90599            0   -796.90599    14270.356 
     420 8.9585462e-05     -796.906            0     -796.906    14270.354 
     421 9.9395899e-05   -796.90601            0     -796.906    14270.351 
     422 0.00010965705   -796.90601            0   -796.90601    14270.349 
     423 0.00012035704   -796.90602            0   -796.90602    14270.346 
     424 0.00013148343   -796.90603            0   -796.90603    14270.343 
     425 0.00014302325   -796.90604            0   -796.90604     14270.34 
     426 0.00015496298   -796.90605            0   -796.90605    14270.337 
     427 0.0001672886   -796.90606            0   -796.90606    14270.333 
     428 0.00017998557   -796.90607            0   -796.90607     14270.33 
     429 0.00019303883   -796.90608            0   -796.90608    14270.326 
     430 0.00020643289   -796.90609            0   -796.90609    14270.322 
     431 0.00022015171   -796.90611            0    -796.9061    14270.318 
     432 0.0002341789   -796.90612            0   -796.90611    14270.314 
     433 0.00024849738   -796.90613            0   -796.90613    14270.309 
     434 0.00026309023   -796.90614            0   -796.90614    14270.304 
     435 0.00027793864   -796.90616            0   -796.90615      14270.3 
     436 0.00029302705   -796.90617            0   -796.90616    14270.294 
     437 0.00030832984   -796.90618            0   -796.90618    14270.289 
     438 0.00032384712    -796.9062            0   -796.90619    14270.284 
     439 0.0003394972   -796.90621            0   -796.90621    14270.277 
     440 0.00035539454   -796.90623            0   -796.90622    14270.273 
     441 0.00037045225   -796.90624            0   -796.90624     14270.26 
     442 0.00038095798   -796.90626            0   -796.90625    14270.278 
     443 0.00032105501   -796.90627            0   -796.90627    14270.195 
     444 6.1695306e-05   -796.90628            0   -796.90627    14270.263 
     445 1.8050481e-05   -796.90628            0   -796.90628    14270.246 
     446 2.0783329e-05   -796.90628            0   -796.90628    14270.243 
     447 2.4655743e-05   -796.90629            0   -796.90629    14270.242 
     448 2.884433e-05   -796.90629            0   -796.90629     14270.24 
     449 3.3344789e-05   -796.90629            0   -796.90629    14270.238 
     450 3.8151618e-05    -796.9063            0    -796.9063    14270.236 
     451 4.3259366e-05    -796.9063            0    -796.9063    14270.233 
     452 4.8662115e-05   -796.90631            0   -796.90631    14270.231 
     453 5.4353614e-05   -796.90632            0   -796.90631    14270.228 
     454 6.032723e-05   -796.90632            0   -796.90632    14270.226 
     455 6.6575982e-05   -796.90633            0   -796.90633    14270.223 
     456 7.3092528e-05   -796.90633            0   -796.90633     14270.22 
     457 7.9869188e-05   -796.90634            0   -796.90634    14270.217 
     458 8.6897935e-05   -796.90635            0   -796.90635    14270.213 
     459 9.4170417e-05   -796.90636            0   -796.90636     14270.21 
     460 0.00010167794   -796.90636            0   -796.90636    14270.206 
     461 0.00010941152   -796.90637            0   -796.90637    14270.202 
     462 0.00011736181   -796.90638            0   -796.90638    14270.198 
     463 0.00012551923   -796.90639            0   -796.90639    14270.193 
     464 0.00013387379    -796.9064            0    -796.9064    14270.189 
     465 0.00014241542   -796.90641            0   -796.90641    14270.184 
     466 0.00015113333   -796.90642            0   -796.90642    14270.179 
     467 0.00016001741   -796.90643            0   -796.90643    14270.174 
     468 0.00016905503   -796.90644            0   -796.90644    14270.169 
     469 0.00017823891   -796.90645            0   -796.90645    14270.163 
     470 0.00018754626   -796.90646            0   -796.90646    14270.157 
     471 0.00019699409   -796.90647            0   -796.90647    14270.152 
     472 0.00020645528   -796.90648            0   -796.90648    14270.144 
     473 0.00021599034    -796.9065            0   -796.90649    14270.142 
     474 0.00022221754   -796.90651            0   -796.90651    14270.119 
     475 0.00020271878   -796.90652            0   -796.90652    14270.164 
     476 5.960174e-05   -796.90652            0   -796.90652    14270.091 
     477 5.5021963e-06   -796.90653            0   -796.90653    14270.106 
     478 6.8416915e-06   -796.90653            0   -796.90653    14270.114 
     479 8.3981856e-06   -796.90653            0   -796.90653    14270.116 
     480 1.0317279e-05   -796.90653            0   -796.90653    14270.115 
     481 1.2480476e-05   -796.90654            0   -796.90654    14270.114 
     482 1.4848443e-05   -796.90654            0   -796.90654    14270.112 
     483 1.7413761e-05   -796.90654            0   -796.90654     14270.11 
     484 2.0173007e-05   -796.90655            0   -796.90654    14270.108 
     485 2.3122992e-05   -796.90655            0   -796.90655    14270.106 
     486 2.6260273e-05   -796.90655            0   -796.90655    14270.103 
     487 2.9581173e-05   -796.90656            0   -796.90656    14270.101 
     488 3.3081779e-05   -796.90656            0   -796.90656    14270.098 
     489 3.6757948e-05   -796.90657            0   -796.90657    14270.095 
     490 4.0605306e-05   -796.90657            0   -796.90657    14270.092 
     491 4.4619258e-05   -796.90658            0   -796.90658    14270.089 
     492 4.8794987e-05   -796.90658            0   -796.90658    14270.086 
     493 5.312746e-05   -796.90659            0   -796.90659    14270.082 
     494 5.7611434e-05   -796.90659            0   -796.90659    14270.078 
     495 6.224145e-05    -796.9066            0    -796.9066    14270.075 
     496 6.7011847e-05   -796.90661            0   -796.90661     14270.07 
     497 7.1916767e-05   -796.90661            0   -796.90661    14270.066 
     498 7.6950152e-05   -796.90662            0   -796.90662    14270.062 
     499 8.2105761e-05   -796.90663            0   -796.90663    14270.057 
     500 8.7377155e-05   -796.90664            0   -796.90664    14270.052 
     501 9.275773e-05   -796.90665            0   -796.90664    14270.047 
     502 9.8240674e-05   -796.90665            0   -796.90665    14270.042 
     503 0.00010381908   -796.90666            0   -796.90666    14270.036 
     504 0.00010948567   -796.90667            0   -796.90667    14270.031 
     505 0.00011523355   -796.90668            0   -796.90668    14270.025 
     506 0.00012105413   -796.90669            0   -796.90669    14270.018 
     507 0.00012694307    -796.9067            0    -796.9067    14270.012 
     508 0.0001328814   -796.90671            0   -796.90671    14270.005 
     509 0.00013889134   -796.90672            0   -796.90672    14269.999 
     510 0.00014476831   -796.90673            0   -796.90673    14269.989 
     511 0.00015000665   -796.90674            0   -796.90674    14269.993 
     512 0.00014031656   -796.90675            0   -796.90675    14269.949 
     513 4.877376e-05   -796.90675            0   -796.90675    14270.004 
     514 8.266591e-07   -796.90675            0   -796.90675    14269.997 
     515 1.3347479e-06   -796.90675            0   -796.90675    14269.988 
     516 1.9609352e-06   -796.90675            0   -796.90675     14269.98 
     517 2.6885415e-06   -796.90676            0   -796.90676    14269.974 
     518 3.5313009e-06   -796.90676            0   -796.90676     14269.97 
     519 4.5132584e-06   -796.90676            0   -796.90676    14269.968 
     520 5.6259887e-06   -796.90676            0   -796.90676    14269.966 
     521 6.8591066e-06   -796.90676            0   -796.90676    14269.965 
     522 8.2096892e-06   -796.90677            0   -796.90677    14269.963 
     523 9.6764969e-06   -796.90677            0   -796.90677    14269.961 
     524 1.1257926e-05   -796.90677            0   -796.90677    14269.959 
     525 1.2952109e-05   -796.90677            0   -796.90677    14269.957 
     526 1.475703e-05   -796.90678            0   -796.90678    14269.954 
     527 1.6670532e-05   -796.90678            0   -796.90678    14269.952 
     528 1.8690314e-05   -796.90678            0   -796.90678    14269.949 
     529 2.0813936e-05   -796.90679            0   -796.90679    14269.946 
     530 2.3038821e-05   -796.90679            0   -796.90679    14269.943 
     531 2.5362254e-05    -796.9068            0    -796.9068     14269.94 
     532 2.7781389e-05    -796.9068            0    -796.9068    14269.937 
     533 3.0293246e-05   -796.90681            0    -796.9068    14269.933 
     534 3.2894718e-05   -796.90681            0   -796.90681     14269.93 
     535 3.5582571e-05   -796.90682            0   -796.90681    14269.926 
     536 3.8353448e-05   -796.90682            0   -796.90682    14269.922 
     537 4.1203869e-05   -796.90683            0   -796.90683    14269.917 
     538 4.4130238e-05   -796.90683            0   -796.90683    14269.913 
     539 4.7128842e-05   -796.90684            0   -796.90684    14269.908 
     540 5.0195855e-05   -796.90684            0   -796.90684    14269.904 
     541 5.3327341e-05   -796.90685            0   -796.90685    14269.899 
     542 5.6519257e-05   -796.90686            0   -796.90686    14269.893 
     543 5.976746e-05   -796.90686            0   -796.90686    14269.888 
     544 6.306769e-05   -796.90687            0   -796.90687    14269.882 
     545 6.6415637e-05   -796.90688            0   -796.90688    14269.877 
     546 6.9806758e-05   -796.90688            0   -796.90688    14269.871 
     547 7.323683e-05   -796.90689            0   -796.90689    14269.865 
     548 7.6700234e-05    -796.9069            0    -796.9069    14269.858 
     549 8.0195488e-05   -796.90691            0   -796.90691    14269.852 
     550 8.3705169e-05   -796.90692            0   -796.90691    14269.844 
     551 8.7253122e-05   -796.90692            0   -796.90692    14269.839 
     552 9.0467205e-05   -796.90693            0   -796.90693    14269.826 
     553 9.0832505e-05   -796.90694            0   -796.90694    14269.839 
     554 5.3597152e-05   -796.90695            0   -796.90695    14269.778 
     555 4.3234035e-07   -796.90695            0   -796.90695    14269.783 
     556 7.2120272e-07   -796.90695            0   -796.90695    14269.791 
     557 1.0795217e-06   -796.90695            0   -796.90695      14269.8 
     558 1.4936191e-06   -796.90695            0   -796.90695    14269.807 
     559 1.9374416e-06   -796.90695            0   -796.90695    14269.811 
     560 2.4507185e-06   -796.90695            0   -796.90695    14269.812 
     561 3.0610879e-06   -796.90695            0   -796.90695    14269.811 
     562 3.7503054e-06   -796.90696            0   -796.90695     14269.81 
     563 4.5092915e-06   -796.90696            0   -796.90696    14269.808 
     564 5.3356571e-06   -796.90696            0   -796.90696    14269.806 
     565 6.2282058e-06   -796.90696            0   -796.90696    14269.804 
     566 7.1858554e-06   -796.90696            0   -796.90696    14269.802 
     567 8.2074426e-06   -796.90697            0   -796.90697      14269.8 
     568 9.2917184e-06   -796.90697            0   -796.90697    14269.798 
     569 1.0437351e-05   -796.90697            0   -796.90697    14269.795 
     570 1.1642924e-05   -796.90697            0   -796.90697    14269.792 
     571 1.2906942e-05   -796.90698            0   -796.90698     14269.79 
     572 1.4227828e-05   -796.90698            0   -796.90698    14269.787 
     573 1.5603927e-05   -796.90698            0   -796.90698    14269.783 
     574 1.7033505e-05   -796.90699            0   -796.90699     14269.78 
     575 1.8514753e-05   -796.90699            0   -796.90699    14269.776 
     576 2.0045789e-05     -796.907            0     -796.907    14269.773 
     577 2.1624655e-05     -796.907            0     -796.907    14269.769 
     578 2.3249324e-05   -796.90701            0     -796.907    14269.765 
     579 2.4917699e-05   -796.90701            0   -796.90701     14269.76 
     580 2.6627613e-05   -796.90701            0   -796.90701    14269.756 
     581 2.8376838e-05   -796.90702            0   -796.90702    14269.752 
     582 3.0163074e-05   -796.90702            0   -796.90702    14269.747 
     583 3.1983971e-05   -796.90703            0   -796.90703    14269.742 
     584 3.3837088e-05   -796.90703            0   -796.90703    14269.737 
     585 3.5720008e-05   -796.90704            0   -796.90704    14269.731 
     586 3.7630029e-05   -796.90705            0   -796.90705    14269.726 
     587 3.9565046e-05   -796.90705            0   -796.90705     14269.72 
     588 4.1520902e-05   -796.90706            0   -796.90706    14269.714 
     589 4.3499548e-05   -796.90706            0   -796.90706    14269.708 
     590 4.5479439e-05   -796.90707            0   -796.90707    14269.701 
     591 4.7486935e-05   -796.90708            0   -796.90708    14269.697 
     592 4.8900564e-05   -796.90708            0   -796.90708    14269.682 
     593 4.509133e-05   -796.90709            0   -796.90709    14269.706 
     594 1.0547409e-05   -796.90709            0   -796.90709    14269.669 
     595 1.2682491e-06   -796.90709            0   -796.90709    14269.675 
     596 1.4818886e-06   -796.90709            0   -796.90709    14269.677 
     597 1.8183419e-06    -796.9071            0    -796.9071    14269.677 
     598 2.2299005e-06    -796.9071            0    -796.9071    14269.676 
     599 2.6868863e-06    -796.9071            0    -796.9071    14269.674 
     600 3.1851165e-06    -796.9071            0    -796.9071    14269.672 
     601 3.7236858e-06    -796.9071            0    -796.9071    14269.671 
     602 4.3019292e-06    -796.9071            0    -796.9071    14269.669 
     603 4.9191308e-06   -796.90711            0   -796.90711    14269.666 
     604 5.5745215e-06   -796.90711            0   -796.90711    14269.664 
     605 6.2672805e-06   -796.90711            0   -796.90711    14269.662 
     606 6.9965355e-06   -796.90711            0   -796.90711    14269.659 
     607 7.7613641e-06   -796.90712            0   -796.90712    14269.657 
     608 8.5607939e-06   -796.90712            0   -796.90712    14269.654 
     609 9.3938039e-06   -796.90712            0   -796.90712    14269.651 
     610 1.0259325e-05   -796.90712            0   -796.90712    14269.647 
     611 1.1156242e-05   -796.90713            0   -796.90713    14269.644 
     612 1.2083391e-05   -796.90713            0   -796.90713    14269.641 
     613 1.3039568e-05   -796.90713            0   -796.90713    14269.637 
     614 1.402352e-05   -796.90714            0   -796.90714    14269.633 
     615 1.5033955e-05   -796.90714            0   -796.90714    14269.629 
     616 1.6069537e-05   -796.90715            0   -796.90715    14269.625 
     617 1.7128893e-05   -796.90715            0   -796.90715    14269.621 
     618 1.8210603e-05   -796.90715            0   -796.90715    14269.616 
     619 1.9313224e-05   -796.90716            0   -796.90716    14269.612 
     620 2.0435242e-05   -796.90716            0   -796.90716    14269.607 
     621 2.1575199e-05   -796.90717            0   -796.90717    14269.602 
     622 2.2731343e-05   -796.90717            0   -796.90717    14269.597 
     623 2.3902661e-05   -796.90718            0   -796.90718    14269.591 
     624 2.5085668e-05   -796.90718            0   -796.90718    14269.586 
     625 2.6284537e-05   -796.90719            0   -796.90719     14269.58 
     626 2.7473435e-05   -796.90719            0   -796.90719    14269.574 
     627 2.868854e-05    -796.9072            0    -796.9072    14269.572 
     628 2.9111182e-05    -796.9072            0    -796.9072    14269.551 
     629 2.2514554e-05   -796.90721            0   -796.90721    14269.586 
     630 6.9295712e-07   -796.90721            0   -796.90721    14269.576 
     631 8.3544988e-07   -796.90721            0   -796.90721    14269.566 
     632 8.7866535e-07   -796.90721            0   -796.90721    14269.559 
     633 9.6223241e-07   -796.90721            0   -796.90721    14269.555 
     634 1.1767792e-06   -796.90721            0   -796.90721    14269.554 
     635 1.4391364e-06   -796.90721            0   -796.90721    14269.552 
     636 1.7275334e-06   -796.90721            0   -796.90721    14269.551 
     637 2.0410521e-06   -796.90722            0   -796.90722    14269.549 
     638 2.3793896e-06   -796.90722            0   -796.90722    14269.547 
     639 2.742115e-06   -796.90722            0   -796.90722    14269.546 
     640 3.1287725e-06   -796.90722            0   -796.90722    14269.544 
     641 3.5388713e-06   -796.90722            0   -796.90722    14269.541 
     642 3.9718893e-06   -796.90722            0   -796.90722    14269.539 
     643 4.4272714e-06   -796.90723            0   -796.90723    14269.537 
     644 4.9044322e-06   -796.90723            0   -796.90723    14269.534 
     645 5.4027545e-06   -796.90723            0   -796.90723    14269.531 
     646 5.9215914e-06   -796.90723            0   -796.90723    14269.529 
     647 6.4602661e-06   -796.90724            0   -796.90724    14269.526 
     648 7.018073e-06   -796.90724            0   -796.90724    14269.523 
     649 7.5942774e-06   -796.90724            0   -796.90724    14269.519 
     650 8.1881185e-06   -796.90724            0   -796.90724    14269.516 
     651 8.7988057e-06   -796.90725            0   -796.90725    14269.512 
     652 9.4255279e-06   -796.90725            0   -796.90725    14269.509 
     653 1.0067437e-05   -796.90725            0   -796.90725    14269.505 
     654 1.0723685e-05   -796.90726            0   -796.90726    14269.501 
     655 1.1393341e-05   -796.90726            0   -796.90726    14269.496 
     656 1.2075599e-05   -796.90726            0   -796.90726    14269.492 
     657 1.2769247e-05   -796.90727            0   -796.90727    14269.488 
     658 1.3474096e-05   -796.90727            0   -796.90727    14269.483 
     659 1.4186841e-05   -796.90728            0   -796.90728    14269.478 
     660 1.4913022e-05   -796.90728            0   -796.90728    14269.474 
     661 1.5623055e-05   -796.90729            0   -796.90728    14269.467 
     662 1.6328535e-05   -796.90729            0   -796.90729    14269.467 
     663 1.5954104e-05   -796.90729            0   -796.90729    14269.446 
     664 8.0680954e-06    -796.9073            0    -796.9073    14269.471 
     665 2.3840924e-07    -796.9073            0    -796.9073    14269.466 
     666 3.197132e-07    -796.9073            0    -796.9073     14269.46 
     667 3.8960694e-07    -796.9073            0    -796.9073    14269.456 
     668 4.7604896e-07    -796.9073            0    -796.9073    14269.454 
     669 6.013979e-07    -796.9073            0    -796.9073    14269.452 
     670 7.5316821e-07    -796.9073            0    -796.9073    14269.451 
     671 9.2279586e-07    -796.9073            0    -796.9073     14269.45 
     672 1.1089538e-06    -796.9073            0    -796.9073    14269.448 
     673 1.3114711e-06    -796.9073            0    -796.9073    14269.447 
     674 1.5301091e-06    -796.9073            0    -796.9073    14269.445 
     675 1.7645895e-06   -796.90731            0   -796.90731    14269.444 
     676 2.0146138e-06   -796.90731            0   -796.90731    14269.442 
     677 2.2798614e-06   -796.90731            0   -796.90731     14269.44 
     678 2.5599911e-06   -796.90731            0   -796.90731    14269.438 
     679 2.8546401e-06   -796.90731            0   -796.90731    14269.436 
     680 3.1634258e-06   -796.90731            0   -796.90731    14269.433 
     681 3.4859448e-06   -796.90732            0   -796.90732    14269.431 
     682 3.8217744e-06   -796.90732            0   -796.90732    14269.428 
     683 4.1704724e-06   -796.90732            0   -796.90732    14269.425 
     684 4.5315778e-06   -796.90732            0   -796.90732    14269.422 
     685 4.904611e-06   -796.90733            0   -796.90733    14269.419 
     686 5.289075e-06   -796.90733            0   -796.90733    14269.416 
     687 5.6844543e-06   -796.90733            0   -796.90733    14269.413 
     688 6.0902184e-06   -796.90733            0   -796.90733     14269.41 
     689 6.5058166e-06   -796.90734            0   -796.90734    14269.406 
     690 6.9306913e-06   -796.90734            0   -796.90734    14269.402 
     691 7.3642481e-06   -796.90734            0   -796.90734    14269.399 
     692 7.805932e-06   -796.90735            0   -796.90735    14269.395 
     693 8.2550303e-06   -796.90735            0   -796.90735    14269.391 
     694 8.7112181e-06   -796.90735            0   -796.90735    14269.386 
     695 9.1729469e-06   -796.90736            0   -796.90736    14269.382 
     696 9.6422146e-06   -796.90736            0   -796.90736    14269.378 
     697 1.0106896e-05   -796.90736            0   -796.90736    14269.372 
     698 1.0573702e-05   -796.90737            0   -796.90737     14269.37 
     699 1.0601063e-05   -796.90737            0   -796.90737    14269.356 
     700 7.1707931e-06   -796.90737            0   -796.90737    14269.375 
     701 1.8811387e-07   -796.90737            0   -796.90737     14269.37 
     702 2.4821775e-07   -796.90737            0   -796.90737    14269.365 
     703 2.9379994e-07   -796.90737            0   -796.90737    14269.361 
     704 3.4395248e-07   -796.90737            0   -796.90737    14269.358 
     705 4.2753228e-07   -796.90737            0   -796.90737    14269.357 
     706 5.3043692e-07   -796.90738            0   -796.90738    14269.356 
     707 6.4469088e-07   -796.90738            0   -796.90738    14269.355 
     708 7.6959802e-07   -796.90738            0   -796.90738    14269.353 
     709 9.0505515e-07   -796.90738            0   -796.90738    14269.352 
     710 1.0508904e-06   -796.90738            0   -796.90738    14269.351 
     711 1.2069173e-06   -796.90738            0   -796.90738    14269.349 
     712 1.3729351e-06   -796.90738            0   -796.90738    14269.347 
     713 1.5487294e-06   -796.90738            0   -796.90738    14269.345 
     714 1.7340718e-06   -796.90739            0   -796.90739    14269.343 
     715 1.9287206e-06   -796.90739            0   -796.90739    14269.341 
     716 2.1324209e-06   -796.90739            0   -796.90739    14269.339 
     717 2.3449048e-06   -796.90739            0   -796.90739    14269.337 
     718 2.5658917e-06   -796.90739            0   -796.90739    14269.334 
     719 2.7950887e-06   -796.90739            0   -796.90739    14269.332 
     720 3.0321909e-06    -796.9074            0    -796.9074    14269.329 
     721 3.2768816e-06    -796.9074            0    -796.9074    14269.326 
     722 3.5288326e-06    -796.9074            0    -796.9074    14269.324 
     723 3.787705e-06    -796.9074            0    -796.9074    14269.321 
     724 4.0531488e-06   -796.90741            0   -796.90741    14269.317 
     725 4.324804e-06   -796.90741            0   -796.90741    14269.314 
     726 4.6023009e-06   -796.90741            0   -796.90741    14269.311 
     727 4.8852592e-06   -796.90741            0   -796.90741    14269.307 
     728 5.1732924e-06   -796.90742            0   -796.90742    14269.304 
     729 5.4659973e-06   -796.90742            0   -796.90742      14269.3 
     730 5.7629864e-06   -796.90742            0   -796.90742    14269.296 
     731 6.0637907e-06   -796.90742            0   -796.90742    14269.292 
     732 6.3681662e-06   -796.90743            0   -796.90743    14269.288 
     733 6.6750561e-06   -796.90743            0   -796.90743    14269.284 
     734 6.9857545e-06   -796.90743            0   -796.90743    14269.279 
     735 7.2867287e-06   -796.90744            0   -796.90744    14269.274 
     736 7.5223394e-06   -796.90744            0   -796.90744    14269.272 
     737 6.3900826e-06   -796.90744            0   -796.90744    14269.259 
     738 7.8430108e-07   -796.90744            0   -796.90744    14269.265 
     739 4.0529683e-07   -796.90744            0   -796.90744    14269.264 
     740 4.8322745e-07   -796.90745            0   -796.90745    14269.263 
     741 5.6867621e-07   -796.90745            0   -796.90745    14269.262 
     742 6.6062589e-07   -796.90745            0   -796.90745    14269.261 
     743 7.5904935e-07   -796.90745            0   -796.90745    14269.259 
     744 8.637855e-07   -796.90745            0   -796.90745    14269.258 
     745 9.7471661e-07   -796.90745            0   -796.90745    14269.256 
     746 1.0916862e-06   -796.90745            0   -796.90745    14269.254 
     747 1.2145517e-06   -796.90745            0   -796.90745    14269.252 
     748 1.3431419e-06   -796.90745            0   -796.90745     14269.25 
     749 1.4772987e-06   -796.90746            0   -796.90746    14269.248 
     750 1.6168311e-06   -796.90746            0   -796.90746    14269.246 
     751 1.7615736e-06   -796.90746            0   -796.90746    14269.244 
     752 1.911304e-06   -796.90746            0   -796.90746    14269.242 
     753 2.0658723e-06   -796.90746            0   -796.90746    14269.239 
     754 2.2249808e-06   -796.90746            0   -796.90746    14269.237 
     755 2.3885945e-06   -796.90747            0   -796.90747    14269.234 
     756 2.556119e-06   -796.90747            0   -796.90747    14269.231 
     757 2.7281853e-06   -796.90747            0   -796.90747    14269.228 
     758 2.9026171e-06   -796.90747            0   -796.90747    14269.225 
     759 3.0849483e-06   -796.90748            0   -796.90748    14269.222 
     760 3.2661556e-06   -796.90748            0   -796.90748    14269.218 
     761 3.5290606e-06   -796.90748            0   -796.90748    14269.219 
     762 4.0790909e-06   -796.90748            0   -796.90748    14269.203 
     763 4.3514338e-06   -796.90748            0   -796.90748    14269.222 
     764 5.5658849e-07   -796.90748            0   -796.90748    14269.214 
     765 2.7850882e-07   -796.90748            0   -796.90748     14269.21 
     766 2.314713e-07   -796.90749            0   -796.90749    14269.208 
     767 2.8038574e-07   -796.90749            0   -796.90749    14269.207 
     768 3.3640088e-07   -796.90749            0   -796.90749    14269.206 
     769 3.9727665e-07   -796.90749            0   -796.90749    14269.205 
     770 4.6295315e-07   -796.90749            0   -796.90749    14269.204 
     771 5.333433e-07   -796.90749            0   -796.90749    14269.203 
     772 6.0835779e-07   -796.90749            0   -796.90749    14269.201 
     773 6.8789921e-07   -796.90749            0   -796.90749      14269.2 
     774 7.7186484e-07   -796.90749            0   -796.90749    14269.198 
     775 8.6014508e-07   -796.90749            0   -796.90749    14269.197 
     776 9.526249e-07   -796.90749            0   -796.90749    14269.195 
     777 1.0491827e-06    -796.9075            0    -796.9075    14269.193 
     778 1.1496919e-06    -796.9075            0    -796.9075    14269.191 
     779 1.2540192e-06    -796.9075            0    -796.9075    14269.189 
     780 1.3620274e-06    -796.9075            0    -796.9075    14269.187 
     781 1.4735716e-06    -796.9075            0    -796.9075    14269.185 
     782 1.5885059e-06    -796.9075            0    -796.9075    14269.182 
     783 1.7066713e-06   -796.90751            0   -796.90751     14269.18 
     784 1.827921e-06   -796.90751            0   -796.90751    14269.177 
     785 1.9520658e-06   -796.90751            0   -796.90751    14269.175 
     786 2.0790018e-06   -796.90751            0   -796.90751    14269.172 
     787 2.2083966e-06   -796.90751            0   -796.90751    14269.169 
     788 2.340519e-06   -796.90751            0   -796.90751    14269.166 
     789 2.4740139e-06   -796.90752            0   -796.90752    14269.163 
     790 2.6131176e-06   -796.90752            0   -796.90752     14269.16 
     791 2.7531092e-06   -796.90752            0   -796.90752    14269.156 
     792 3.0141213e-06   -796.90752            0   -796.90752    14269.158 
     793 3.8883697e-06   -796.90753            0   -796.90753    14269.139 
     794 2.2591259e-06   -796.90753            0   -796.90753    14269.154 
     795 2.3017606e-07   -796.90753            0   -796.90753     14269.15 
     796 1.5462712e-07   -796.90753            0   -796.90753    14269.148 
     797 1.8522911e-07   -796.90753            0   -796.90753    14269.147 
     798 2.2321581e-07   -796.90753            0   -796.90753    14269.147 
     799 2.6457027e-07   -796.90753            0   -796.90753    14269.146 
     800 3.0926852e-07   -796.90753            0   -796.90753    14269.145 
     801 3.5724856e-07   -796.90753            0   -796.90753    14269.143 
     802 4.084509e-07   -796.90753            0   -796.90753    14269.142 
     803 4.6280902e-07   -796.90753            0   -796.90753    14269.141 
     804 5.2025347e-07   -796.90753            0   -796.90753    14269.139 
     805 5.8070955e-07   -796.90753            0   -796.90753    14269.138 
     806 6.4409926e-07   -796.90754            0   -796.90754    14269.136 
     807 7.1033961e-07   -796.90754            0   -796.90754    14269.135 
     808 7.7934469e-07   -796.90754            0   -796.90754    14269.133 
     809 8.5102331e-07   -796.90754            0   -796.90754    14269.131 
     810 9.252826e-07   -796.90754            0   -796.90754    14269.129 
     811 1.0020226e-06   -796.90754            0   -796.90754    14269.127 
     812 1.0811459e-06   -796.90754            0   -796.90754    14269.125 
     813 1.1625373e-06   -796.90754            0   -796.90754    14269.123 
     814 1.2461074e-06   -796.90755            0   -796.90755    14269.121 
     815 1.3317082e-06   -796.90755            0   -796.90755    14269.118 
     816 1.4193147e-06   -796.90755            0   -796.90755    14269.116 
     817 1.5085868e-06   -796.90755            0   -796.90755    14269.113 
     818 1.6000411e-06   -796.90755            0   -796.90755    14269.111 
     819 1.6920384e-06   -796.90755            0   -796.90755    14269.108 
     820 1.791896e-06   -796.90756            0   -796.90756    14269.106 
     821 1.9061332e-06   -796.90756            0   -796.90756    14269.101 
     822 2.3179258e-06   -796.90756            0   -796.90756    14269.106 
     823 3.1595137e-06   -796.90756            0   -796.90756    14269.087 
     824 2.9307699e-07   -796.90756            0   -796.90756    14269.092 
     825 2.0159923e-07   -796.90756            0   -796.90756    14269.095 
     826 1.051641e-07   -796.90756            0   -796.90756    14269.096 
     827 1.0835585e-07   -796.90756            0   -796.90756    14269.096 
     828 1.3220437e-07   -796.90756            0   -796.90756    14269.095 
     829 1.5907014e-07   -796.90756            0   -796.90756    14269.094 
     830 1.8832166e-07   -796.90756            0   -796.90756    14269.093 
     831 2.199175e-07   -796.90756            0   -796.90756    14269.092 
     832 2.5381869e-07   -796.90757            0   -796.90757    14269.091 
     833  2.89982e-07   -796.90757            0   -796.90757     14269.09 
     834 3.2836158e-07   -796.90757            0   -796.90757    14269.089 
     835 3.689083e-07   -796.90757            0   -796.90757    14269.088 
     836 4.1157028e-07   -796.90757            0   -796.90757    14269.087 
     837 4.5629256e-07   -796.90757            0   -796.90757    14269.085 
     838 5.0301755e-07   -796.90757            0   -796.90757    14269.084 
     839 5.5168464e-07   -796.90757            0   -796.90757    14269.082 
     840 6.0223091e-07   -796.90757            0   -796.90757     14269.08 
     841 6.5459027e-07   -796.90757            0   -796.90757    14269.079 
     842 7.0869504e-07   -796.90758            0   -796.90758    14269.077 
     843 7.6447344e-07   -796.90758            0   -796.90758    14269.075 
     844 8.2185453e-07   -796.90758            0   -796.90758    14269.073 
     845 8.8075836e-07   -796.90758            0   -796.90758    14269.071 
     846 9.4111812e-07   -796.90758            0   -796.90758    14269.069 
     847 1.0028281e-06   -796.90758            0   -796.90758    14269.067 
     848 1.0658753e-06   -796.90758            0   -796.90758    14269.065 
     849 1.1299918e-06   -796.90758            0   -796.90758    14269.062 
     850 1.1956722e-06   -796.90759            0   -796.90759     14269.06 
     851 1.2614735e-06   -796.90759            0   -796.90759    14269.057 
     852 1.3362732e-06   -796.90759            0   -796.90759    14269.056 
     853 1.4434302e-06   -796.90759            0   -796.90759     14269.05 
     854 2.0257382e-06   -796.90759            0   -796.90759    14269.058 
     855 1.718343e-06   -796.90759            0   -796.90759    14269.043 
     856 1.0992368e-07   -796.90759            0   -796.90759    14269.046 
     857 7.2782413e-08   -796.90759            0   -796.90759    14269.047 
     858 5.8058571e-08   -796.90759            0   -796.90759    14269.047 
     859 6.8232501e-08   -796.90759            0   -796.90759    14269.047 
     860 8.419723e-08    -796.9076            0    -796.9076    14269.046 
     861 1.0207641e-07    -796.9076            0    -796.9076    14269.046 
     862 1.2161934e-07    -796.9076            0    -796.9076    14269.045 
     863 1.4279425e-07    -796.9076            0    -796.9076    14269.044 
     864 1.6557565e-07    -796.9076            0    -796.9076    14269.043 
     865 1.8993482e-07    -796.9076            0    -796.9076    14269.042 
     866 2.1584131e-07    -796.9076            0    -796.9076    14269.041 
     867 2.4326238e-07    -796.9076            0    -796.9076     14269.04 
     868 2.7216342e-07    -796.9076            0    -796.9076    14269.039 
     869 3.0250769e-07    -796.9076            0    -796.9076    14269.038 
     870 3.3425664e-07    -796.9076            0    -796.9076    14269.036 
     871 3.6736965e-07    -796.9076            0    -796.9076    14269.035 
     872 4.0180448e-07    -796.9076            0    -796.9076    14269.034 
     873 4.3751679e-07    -796.9076            0    -796.9076    14269.032 
     874 4.7446097e-07   -796.90761            0   -796.90761    14269.031 
     875 5.1258886e-07   -796.90761            0   -796.90761    14269.029 
     876 5.518524e-07   -796.90761            0   -796.90761    14269.027 
     877 5.9219838e-07   -796.90761            0   -796.90761    14269.026 
     878 6.3358003e-07   -796.90761            0   -796.90761    14269.024 
     879 6.759304e-07   -796.90761            0   -796.90761    14269.022 
     880 7.1922861e-07   -796.90761            0   -796.90761     14269.02 
     881 7.6332706e-07   -796.90761            0   -796.90761    14269.018 
     882 8.0844505e-07   -796.90762            0   -796.90762    14269.016 
     883 8.5382906e-07   -796.90762            0   -796.90762    14269.013 
     884 9.0316792e-07   -796.90762            0   -796.90762    14269.012 
     885 9.6163153e-07   -796.90762            0   -796.90762    14269.008 
     886 1.2124478e-06   -796.90762            0   -796.90762    14269.012 
     887 1.841119e-06   -796.90762            0   -796.90762    14268.996 
     888 1.0283886e-07   -796.90762            0   -796.90762    14268.999 
     889 9.7521748e-08   -796.90762            0   -796.90762    14269.002 
     890 6.0203865e-08   -796.90762            0   -796.90762    14269.004 
     891 4.2165516e-08   -796.90762            0   -796.90762    14269.004 
     892 4.8511145e-08   -796.90762            0   -796.90762    14269.004 
     893 5.9706986e-08   -796.90762            0   -796.90762    14269.003 
     894 7.2234408e-08   -796.90762            0   -796.90762    14269.002 
     895 8.5912579e-08   -796.90762            0   -796.90762    14269.002 
     896 1.007212e-07   -796.90762            0   -796.90762    14269.001 
     897 1.1664264e-07   -796.90763            0   -796.90763        14269 
     898 1.3365708e-07   -796.90763            0   -796.90763    14268.999 
     899 1.5174355e-07   -796.90763            0   -796.90763    14268.998 
     900 1.7087949e-07   -796.90763            0   -796.90763    14268.997 
     901 1.910411e-07   -796.90763            0   -796.90763    14268.996 
     902 2.1220309e-07   -796.90763            0   -796.90763    14268.995 
     903 2.3433897e-07   -796.90763            0   -796.90763    14268.994 
     904 2.5742082e-07   -796.90763            0   -796.90763    14268.993 
     905 2.8141965e-07   -796.90763            0   -796.90763    14268.992 
     906 3.0630496e-07   -796.90763            0   -796.90763     14268.99 
     907 3.3204557e-07   -796.90763            0   -796.90763    14268.989 
     908 3.5860823e-07   -796.90763            0   -796.90763    14268.988 
     909 3.8596039e-07   -796.90763            0   -796.90763    14268.986 
     910 4.1406468e-07   -796.90764            0   -796.90764    14268.984 
     911 4.4289121e-07   -796.90764            0   -796.90764    14268.983 
     912 4.7238866e-07   -796.90764            0   -796.90764    14268.981 
     913 5.0255765e-07   -796.90764            0   -796.90764    14268.979 
     914 5.3325686e-07   -796.90764            0   -796.90764    14268.978 
     915 5.6477525e-07   -796.90764            0   -796.90764    14268.976 
     916 5.9634794e-07   -796.90764            0   -796.90764    14268.974 
     917 6.3339282e-07   -796.90764            0   -796.90764    14268.972 
     918 6.937743e-07   -796.90764            0   -796.90764    14268.968 
     919 1.0552684e-06   -796.90765            0   -796.90765    14268.974 
     920 7.5970652e-07   -796.90765            0   -796.90765    14268.964 
     921 6.0538863e-08   -796.90765            0   -796.90765    14268.966 
     922 3.2737177e-08   -796.90765            0   -796.90765    14268.967 
     923 3.4371935e-08   -796.90765            0   -796.90765    14268.966 
     924 4.2165601e-08   -796.90765            0   -796.90765    14268.966 
     925 5.0982691e-08   -796.90765            0   -796.90765    14268.965 
     926 6.0607576e-08   -796.90765            0   -796.90765    14268.965 
     927 7.1026035e-08   -796.90765            0   -796.90765    14268.964 
     928 8.2225926e-08   -796.90765            0   -796.90765    14268.963 
     929 9.4193485e-08   -796.90765            0   -796.90765    14268.963 
     930 1.0691421e-07   -796.90765            0   -796.90765    14268.962 
     931 1.2037245e-07   -796.90765            0   -796.90765    14268.961 
     932 1.3455176e-07   -796.90765            0   -796.90765     14268.96 
     933 1.494346e-07   -796.90765            0   -796.90765    14268.959 
     934 1.6500266e-07   -796.90765            0   -796.90765    14268.958 
     935 1.812366e-07   -796.90765            0   -796.90765    14268.957 
     936 1.9811639e-07   -796.90765            0   -796.90765    14268.956 
     937 2.1562087e-07   -796.90765            0   -796.90765    14268.955 
     938 2.3372858e-07   -796.90765            0   -796.90765    14268.953 
     939 2.5241631e-07   -796.90766            0   -796.90766    14268.952 
     940 2.7166202e-07   -796.90766            0   -796.90766    14268.951 
     941 2.9143879e-07   -796.90766            0   -796.90766    14268.949 
     942 3.1172856e-07   -796.90766            0   -796.90766    14268.948 
     943 3.3248929e-07   -796.90766            0   -796.90766    14268.947 
     944 3.5373956e-07   -796.90766            0   -796.90766    14268.945 
     945 3.7533409e-07   -796.90766            0   -796.90766    14268.943 
     946 3.976546e-07   -796.90766            0   -796.90766    14268.942 
     947 4.1999601e-07   -796.90766            0   -796.90766     14268.94 
     948 4.5113781e-07   -796.90766            0   -796.90766    14268.939 
     949 5.3590797e-07   -796.90767            0   -796.90767    14268.934 
     950 9.3032184e-07   -796.90767            0   -796.90767    14268.942 
     951 1.2359702e-07   -796.90767            0   -796.90767    14268.938 
     952 6.3350111e-08   -796.90767            0   -796.90767    14268.935 
     953 2.6084129e-08   -796.90767            0   -796.90767    14268.934 
     954 3.0217436e-08   -796.90767            0   -796.90767    14268.934 
     955 3.6514372e-08   -796.90767            0   -796.90767    14268.933 
     956 4.3380881e-08   -796.90767            0   -796.90767    14268.933 
     957 5.0812757e-08   -796.90767            0   -796.90767    14268.932 
     958 5.8800286e-08   -796.90767            0   -796.90767    14268.932 
     959 6.7334263e-08   -796.90767            0   -796.90767    14268.931 
     960 7.6404256e-08   -796.90767            0   -796.90767     14268.93 
     961 8.5999481e-08   -796.90767            0   -796.90767     14268.93 
     962 9.6108224e-08   -796.90767            0   -796.90767    14268.929 
     963 1.0671837e-07   -796.90767            0   -796.90767    14268.928 
     964 1.1781687e-07   -796.90767            0   -796.90767    14268.927 
     965 1.2939044e-07   -796.90767            0   -796.90767    14268.926 
     966 1.4142465e-07   -796.90767            0   -796.90767    14268.925 
     967 1.5390529e-07   -796.90767            0   -796.90767    14268.924 
     968 1.6681622e-07   -796.90767            0   -796.90767    14268.923 
     969 1.8014331e-07   -796.90767            0   -796.90767    14268.922 
     970 1.9386668e-07   -796.90767            0   -796.90767    14268.921 
     971 2.0797736e-07   -796.90768            0   -796.90768     14268.92 
     972 2.2243939e-07   -796.90768            0   -796.90768    14268.918 
     973 2.3728311e-07   -796.90768            0   -796.90768    14268.917 
     974 2.5236924e-07   -796.90768            0   -796.90768    14268.916 
     975 2.6809447e-07   -796.90768            0   -796.90768    14268.914 
     976 2.8387445e-07   -796.90768            0   -796.90768    14268.913 
     977 3.0850058e-07   -796.90768            0   -796.90768    14268.912 
     978 3.8610768e-07   -796.90768            0   -796.90768    14268.907 
     979 6.8530327e-07   -796.90768            0   -796.90768    14268.915 
     980 8.2219764e-08   -796.90768            0   -796.90768    14268.911 
     981 4.4375197e-08   -796.90768            0   -796.90768    14268.909 
     982 1.8214978e-08   -796.90768            0   -796.90768    14268.908 
     983 2.0256436e-08   -796.90768            0   -796.90768    14268.908 
     984 2.4666358e-08   -796.90768            0   -796.90768    14268.907 
     985 2.9490545e-08   -796.90768            0   -796.90768    14268.907 
     986 3.472921e-08   -796.90768            0   -796.90768    14268.906 
     987 4.0374432e-08   -796.90768            0   -796.90768    14268.906 
     988 4.6420159e-08   -796.90768            0   -796.90768    14268.905 
     989 5.2858973e-08   -796.90768            0   -796.90768    14268.905 
     990 5.9683449e-08   -796.90769            0   -796.90769    14268.904 
     991 6.6885324e-08   -796.90769            0   -796.90769    14268.903 
     992 7.4456184e-08   -796.90769            0   -796.90769    14268.903 
     993 8.2386811e-08   -796.90769            0   -796.90769    14268.902 
     994 9.0667954e-08   -796.90769            0   -796.90769    14268.901 
     995 9.928935e-08   -796.90769            0   -796.90769      14268.9 
     996 1.0824119e-07   -796.90769            0   -796.90769    14268.899 
     997 1.1751176e-07   -796.90769            0   -796.90769    14268.898 
     998 1.2709168e-07   -796.90769            0   -796.90769    14268.897 
     999 1.3696582e-07   -796.90769            0   -796.90769    14268.896 
    1000 1.4713008e-07   -796.90769            0   -796.90769    14268.895 
    1001 1.5755411e-07   -796.90769            0   -796.90769    14268.894 
    1002 1.6827161e-07   -796.90769            0   -796.90769    14268.893 
    1003 1.791575e-07   -796.90769            0   -796.90769    14268.892 
    1004 1.9059689e-07   -796.90769            0   -796.90769    14268.891 
    1005 2.021842e-07   -796.90769            0   -796.90769    14268.889 
    1006 2.2295204e-07   -796.90769            0   -796.90769    14268.889 
    1007 2.9971729e-07    -796.9077            0    -796.9077    14268.884 
    1008 5.000855e-07    -796.9077            0    -796.9077    14268.891 
    1009 4.3091182e-08    -796.9077            0    -796.9077    14268.888 
    1010 2.8423126e-08    -796.9077            0    -796.9077    14268.886 
    1011 1.2976127e-08    -796.9077            0    -796.9077    14268.885 
    1012 1.2528875e-08    -796.9077            0    -796.9077    14268.885 
    1013 1.5431776e-08    -796.9077            0    -796.9077    14268.885 
    1014 1.872211e-08    -796.9077            0    -796.9077    14268.884 
    1015 2.2317782e-08    -796.9077            0    -796.9077    14268.884 
    1016 2.6216102e-08    -796.9077            0    -796.9077    14268.884 
    1017 3.0412315e-08    -796.9077            0    -796.9077    14268.883 
    1018 3.490167e-08    -796.9077            0    -796.9077    14268.883 
    1019  3.96789e-08    -796.9077            0    -796.9077    14268.882 
    1020 4.4738477e-08    -796.9077            0    -796.9077    14268.881 
[...]
    2383 7.421614e-08   -796.86669            0   -796.86669    14343.413 
    2384 8.1310461e-08   -796.86669            0   -796.86669    14343.413 
    2385 8.8670576e-08   -796.86669            0   -796.86669    14343.412 
    2386 9.6286221e-08   -796.86669            0   -796.86669    14343.412 
    2387 1.0414676e-07   -796.86669            0   -796.86669    14343.412 
    2388 1.1224115e-07   -796.86669            0   -796.86669    14343.411 
    2389 1.2055803e-07   -796.86669            0   -796.86669    14343.411 
    2390 1.2908563e-07   -796.86669            0   -796.86669    14343.411 
    2391 1.3781183e-07   -796.86669            0   -796.86669     14343.41 
    2392 1.4672357e-07   -796.86669            0   -796.86669     14343.41 
    2393 1.5580489e-07   -796.86669            0   -796.86669     14343.41 
    2394 1.6501944e-07   -796.86669            0   -796.86669    14343.409 
    2395 1.7418415e-07   -796.86669            0   -796.86669    14343.409 
    2396 1.8188236e-07   -796.86669            0   -796.86669    14343.409 
    2397 1.7622082e-07   -796.86669            0   -796.86669    14343.408 
    2398 9.6324502e-08   -796.86669            0   -796.86669    14343.408 
    2399 7.5720771e-09   -796.86669            0   -796.86669    14343.408 
    2400 1.1851984e-08   -796.86669            0   -796.86669    14343.408 
    2401 1.421215e-08   -796.86669            0   -796.86669    14343.407 
    2402 1.6803265e-08   -796.86669            0   -796.86669    14343.407 
    2403 1.9599491e-08   -796.86669            0   -796.86669    14343.407 
    2404 2.2596852e-08   -796.86669            0   -796.86669    14343.407 
    2405 2.579121e-08   -796.86669            0   -796.86669    14343.407 
    2406 2.9178136e-08   -796.86669            0   -796.86669    14343.407 
    2407 3.275291e-08   -796.86669            0   -796.86669    14343.407 
    2408 3.6510537e-08   -796.86669            0   -796.86669    14343.406 
    2409 4.044574e-08   -796.86669            0   -796.86669    14343.406 
    2410 4.4552979e-08   -796.86669            0   -796.86669    14343.406 
    2411 4.8826451e-08   -796.86669            0   -796.86669    14343.406 
    2412  5.32601e-08   -796.86669            0   -796.86669    14343.405 
    2413 5.7847621e-08   -796.86669            0   -796.86669    14343.405 
    2414 6.2582476e-08   -796.86669            0   -796.86669    14343.405 
    2415 6.7457892e-08   -796.86669            0   -796.86669    14343.405 
    2416 7.246688e-08   -796.86669            0   -796.86669    14343.404 
    2417 7.7602233e-08   -796.86669            0   -796.86669    14343.404 
    2418 8.2856546e-08   -796.86669            0   -796.86669    14343.404 
    2419 8.8222212e-08   -796.86669            0   -796.86669    14343.404 
    2420 9.3691434e-08   -796.86669            0   -796.86669    14343.403 
    2421 9.9256114e-08   -796.86669            0   -796.86669    14343.403 
    2422 1.049073e-07   -796.86669            0   -796.86669    14343.403 
    2423 1.1062949e-07   -796.86669            0   -796.86669    14343.402 
    2424 1.1635079e-07   -796.86669            0   -796.86669    14343.402 
    2425  1.21424e-07   -796.86669            0   -796.86669    14343.401 
    2426 1.1917436e-07   -796.86669            0   -796.86669    14343.401 
    2427 6.5451313e-08   -796.86669            0   -796.86669      14343.4 
    2428 2.7867691e-09   -796.86669            0   -796.86669    14343.401 
    2429 4.9858917e-09   -796.86669            0   -796.86669    14343.401 
    2430 6.4443585e-09   -796.86669            0   -796.86669    14343.401 
    2431 7.7682821e-09   -796.86669            0   -796.86669      14343.4 
    2432 9.2094189e-09   -796.86669            0   -796.86669      14343.4 
    2433 1.0766496e-08   -796.86669            0   -796.86669      14343.4 
    2434 1.2437309e-08   -796.86669            0   -796.86669      14343.4 
    2435 1.4219509e-08   -796.86669            0   -796.86669      14343.4 
    2436 1.6110577e-08   -796.86669            0   -796.86669      14343.4 
    2437 1.8107831e-08   -796.86669            0   -796.86669      14343.4 
    2438 2.0208423e-08   -796.86669            0   -796.86669      14343.4 
    2439 2.2409352e-08   -796.86669            0   -796.86669    14343.399 
    2440 2.4707458e-08   -796.86669            0   -796.86669    14343.399 
    2441 2.7099433e-08   -796.86669            0   -796.86669    14343.399 
    2442 2.9581821e-08   -796.86669            0   -796.86669    14343.399 
    2443 3.2151027e-08   -796.86669            0   -796.86669    14343.399 
    2444 3.4803319e-08   -796.86669            0   -796.86669    14343.399 
    2445 3.7534829e-08   -796.86669            0   -796.86669    14343.398 
    2446 4.0341568e-08   -796.86669            0   -796.86669    14343.398 
    2447 4.3219419e-08   -796.86669            0   -796.86669    14343.398 
    2448 4.6164157e-08   -796.86669            0   -796.86669    14343.398 
    2449 4.9171434e-08   -796.86669            0   -796.86669    14343.397 
    2450 5.2236813e-08   -796.86669            0   -796.86669    14343.397 
    2451 5.5355727e-08   -796.86669            0   -796.86669    14343.397 
    2452 5.8523549e-08   -796.86669            0   -796.86669    14343.397 
    2453 6.1735281e-08   -796.86669            0   -796.86669    14343.396 
    2454 6.4984632e-08   -796.86669            0   -796.86669    14343.396 
    2455 6.8250125e-08   -796.86669            0   -796.86669    14343.396 
    2456 7.1353531e-08   -796.86669            0   -796.86669    14343.395 
    2457 7.2262652e-08   -796.86669            0   -796.86669    14343.395 
    2458 5.1962985e-08   -796.86669            0   -796.86669    14343.395 
    2459 3.9174772e-09   -796.86669            0   -796.86669    14343.395 
    2460 4.7278343e-09   -796.86669            0   -796.86669    14343.395 
    2461 5.5590605e-09   -796.86669            0   -796.86669    14343.395 
    2462 6.4567545e-09   -796.86669            0   -796.86669    14343.394 
    2463 7.4169084e-09   -796.86669            0   -796.86669    14343.394 
    2464 8.4380805e-09   -796.86669            0   -796.86669    14343.394 
    2465 9.5187909e-09   -796.86669            0   -796.86669    14343.394 
    2466 1.0657478e-08   -796.86669            0   -796.86669    14343.394 
    2467 1.1852486e-08   -796.86669            0   -796.86669    14343.394 
    2468 1.3102074e-08   -796.86669            0   -796.86669    14343.394 
    2469 1.4404416e-08   -796.86669            0   -796.86669    14343.394 
    2470  1.57576e-08   -796.86669            0   -796.86669    14343.393 
    2471 1.7159636e-08   -796.86669            0   -796.86669    14343.393 
    2472 1.8608457e-08   -796.86669            0   -796.86669    14343.393 
    2473 2.0101914e-08   -796.86669            0   -796.86669    14343.393 
    2474 2.1637795e-08   -796.86669            0   -796.86669    14343.393 
    2475 2.3213803e-08   -796.86669            0   -796.86669    14343.393 
    2476 2.4827586e-08   -796.86669            0   -796.86669    14343.392 
    2477 2.6476618e-08   -796.86669            0   -796.86669    14343.392 
    2478 2.8158117e-08   -796.86669            0   -796.86669    14343.392 
    2479 2.9867046e-08   -796.86669            0   -796.86669    14343.392 
    2480 3.158615e-08   -796.86669            0   -796.86669    14343.392 
    2481 3.3199886e-08   -796.86669            0   -796.86669    14343.391 
    2482 3.3823842e-08   -796.86669            0   -796.86669    14343.391 
    2483 2.7323982e-08   -796.86669            0   -796.86669    14343.391 
    2484 6.2751757e-09   -796.86669            0   -796.86669    14343.391 
    2485 1.7816449e-09   -796.86669            0   -796.86669    14343.391 
    2486 2.2827623e-09   -796.86669            0   -796.86669    14343.391 
    2487 2.7413296e-09   -796.86669            0   -796.86669    14343.391 
    2488 3.2400704e-09   -796.86669            0   -796.86669    14343.391 
    2489 3.7780561e-09   -796.86669            0   -796.86669    14343.391 
    2490 4.3545116e-09   -796.86669            0   -796.86669    14343.391 
    2491 4.9686008e-09   -796.86669            0   -796.86669     14343.39 
    2492 5.6194296e-09   -796.86669            0   -796.86669     14343.39 
    2493 6.3060459e-09   -796.86669            0   -796.86669     14343.39 
    2494 7.0274419e-09   -796.86669            0   -796.86669     14343.39 
    2495 7.7825543e-09   -796.86669            0   -796.86669     14343.39 
    2496 8.5702675e-09   -796.86669            0   -796.86669     14343.39 
    2497 9.3894126e-09   -796.86669            0   -796.86669     14343.39 
    2498 1.0238772e-08   -796.86669            0   -796.86669     14343.39 
    2499 1.1117078e-08   -796.86669            0   -796.86669     14343.39 
    2500 1.2023017e-08   -796.86669            0   -796.86669    14343.389 
    2501 1.2955229e-08   -796.86669            0   -796.86669    14343.389 
    2502 1.3912315e-08   -796.86669            0   -796.86669    14343.389 
    2503 1.4892827e-08   -796.86669            0   -796.86669    14343.389 
    2504 1.5895288e-08   -796.86669            0   -796.86669    14343.389 
    2505 1.691817e-08   -796.86669            0   -796.86669    14343.389 
    2506 1.7959933e-08   -796.86669            0   -796.86669    14343.389 
    2507 1.9018954e-08   -796.86669            0   -796.86669    14343.388 
    2508 2.009368e-08   -796.86669            0   -796.86669    14343.388 
    2509 2.1182197e-08   -796.86669            0   -796.86669    14343.388 
    2510 2.2282603e-08   -796.86669            0   -796.86669    14343.388 
    2511 2.3384806e-08   -796.86669            0   -796.86669    14343.388 
    2512 2.4414531e-08   -796.86669            0   -796.86669    14343.387 
    2513 2.4465095e-08   -796.86669            0   -796.86669    14343.387 
    2514 1.5874725e-08   -796.86669            0   -796.86669    14343.387 
    2515 7.8931051e-10   -796.86669            0   -796.86669    14343.387 
    2516 1.3621704e-09   -796.86669            0   -796.86669    14343.387 
    2517 1.6099197e-09   -796.86669            0   -796.86669    14343.387 
    2518 1.8927375e-09   -796.86669            0   -796.86669    14343.387 
    2519 2.1969871e-09   -796.86669            0   -796.86669    14343.387 
    2520 2.5222309e-09   -796.86669            0   -796.86669    14343.387 
    2521 2.8679906e-09   -796.86669            0   -796.86669    14343.387 
    2522 3.2337553e-09   -796.86669            0   -796.86669    14343.387 
    2523 3.6189827e-09   -796.86669            0   -796.86669    14343.387 
    2524 4.0230992e-09   -796.86669            0   -796.86669    14343.386 
    2525 4.4455012e-09   -796.86669            0   -796.86669    14343.386 
    2526 4.8855559e-09   -796.86669            0   -796.86669    14343.386 
    2527 5.3426017e-09   -796.86669            0   -796.86669    14343.386 
    2528  5.81595e-09   -796.86669            0   -796.86669    14343.386 
    2529 6.3048852e-09   -796.86669            0   -796.86669    14343.386 
    2530 6.8086667e-09   -796.86669            0   -796.86669    14343.386 
    2531 7.3265288e-09   -796.86669            0   -796.86669    14343.386 
    2532 7.8576828e-09   -796.86669            0   -796.86669    14343.386 
    2533 8.4013181e-09   -796.86669            0   -796.86669    14343.386 
    2534 8.9566005e-09   -796.86669            0   -796.86669    14343.385 
    2535 9.5226792e-09   -796.86669            0   -796.86669    14343.385 
    2536 1.0098658e-08   -796.86669            0   -796.86669    14343.385 
    2537 1.0683572e-08   -796.86669            0   -796.86669    14343.385 
    2538 1.1275689e-08   -796.86669            0   -796.86669    14343.385 
    2539 1.1868039e-08   -796.86669            0   -796.86669    14343.385 
    2540 1.2401701e-08   -796.86669            0   -796.86669    14343.385 
    2541 1.2320845e-08   -796.86669            0   -796.86669    14343.385 
    2542 7.7875985e-09   -796.86669            0   -796.86669    14343.384 
    2543 5.7531541e-10   -796.86669            0   -796.86669    14343.384 
    2544 8.5821757e-10   -796.86669            0   -796.86669    14343.384 
    2545 1.0098161e-09   -796.86669            0   -796.86669    14343.384 
    2546 1.1806262e-09   -796.86669            0   -796.86669    14343.384 
    2547 1.3639355e-09   -796.86669            0   -796.86669    14343.384 
    2548 1.5594232e-09   -796.86669            0   -796.86669    14343.384 
    2549 1.7667937e-09   -796.86669            0   -796.86669    14343.384 
    2550 1.9857378e-09   -796.86669            0   -796.86669    14343.384 
    2551 2.2159266e-09   -796.86669            0   -796.86669    14343.384 
    2552 2.4570142e-09   -796.86669            0   -796.86669    14343.384 
    2553 2.7086365e-09   -796.86669            0   -796.86669    14343.384 
    2554 2.9704128e-09   -796.86669            0   -796.86669    14343.384 
    2555 3.2419453e-09   -796.86669            0   -796.86669    14343.384 
    2556 3.5228212e-09   -796.86669            0   -796.86669    14343.384 
    2557 3.8126111e-09   -796.86669            0   -796.86669    14343.384 
    2558 4.1108725e-09   -796.86669            0   -796.86669    14343.383 
    2559 4.4171463e-09   -796.86669            0   -796.86669    14343.383 
    2560 4.730963e-09   -796.86669            0   -796.86669    14343.383 
    2561 5.0518294e-09   -796.86669            0   -796.86669    14343.383 
    2562 5.3792372e-09   -796.86669            0   -796.86669    14343.383 
    2563 5.7125246e-09   -796.86669            0   -796.86669    14343.383 
    2564 6.050429e-09   -796.86669            0   -796.86669    14343.383 
    2565 6.3866378e-09   -796.86669            0   -796.86669    14343.383 
    2566 6.6777058e-09   -796.86669            0   -796.86669    14343.383 
    2567 6.5714319e-09   -796.86669            0   -796.86669    14343.382 
    2568 4.1311854e-09   -796.86669            0   -796.86669    14343.383 
    2569 4.5769472e-10   -796.86669            0   -796.86669    14343.382 
    2570 5.6100099e-10   -796.86669            0   -796.86669    14343.382 
    2571 6.6134217e-10   -796.86669            0   -796.86669    14343.382 
    2572 7.6983318e-10   -796.86669            0   -796.86669    14343.382 
    2573 8.8597689e-10   -796.86669            0   -796.86669    14343.382 
    2574 1.0095894e-09   -796.86669            0   -796.86669    14343.382 
    2575 1.140486e-09   -796.86669            0   -796.86669    14343.382 
    2576 1.2784689e-09   -796.86669            0   -796.86669    14343.382 
    2577 1.4233299e-09   -796.86669            0   -796.86669    14343.382 
    2578 1.5748489e-09   -796.86669            0   -796.86669    14343.382 
    2579 1.7327959e-09   -796.86669            0   -796.86669    14343.382 
    2580 1.8969294e-09   -796.86669            0   -796.86669    14343.382 
    2581 2.066999e-09   -796.86669            0   -796.86669    14343.382 
    2582 2.2427432e-09   -796.86669            0   -796.86669    14343.382 
    2583 2.4238928e-09   -796.86669            0   -796.86669    14343.382 
    2584 2.6101673e-09   -796.86669            0   -796.86669    14343.382 
    2585 2.8012807e-09   -796.86669            0   -796.86669    14343.382 
    2586 2.9969333e-09   -796.86669            0   -796.86669    14343.382 
    2587 3.1968239e-09   -796.86669            0   -796.86669    14343.381 
    2588 3.4006104e-09   -796.86669            0   -796.86669    14343.381 
    2589 3.6078925e-09   -796.86669            0   -796.86669    14343.381 
    2590 3.8175635e-09   -796.86669            0   -796.86669    14343.381 
    2591 4.0242502e-09   -796.86669            0   -796.86669    14343.381 
    2592 4.1854156e-09   -796.86669            0   -796.86669    14343.381 
    2593 3.9637103e-09   -796.86669            0   -796.86669    14343.381 
    2594 1.9130187e-09   -796.86669            0   -796.86669    14343.381 
    2595 1.5294005e-10   -796.86669            0   -796.86669    14343.381 
    2596 2.4400917e-10   -796.86669            0   -796.86669    14343.381 
    2597 2.9870467e-10   -796.86669            0   -796.86669    14343.381 
    2598 3.5630536e-10   -796.86669            0   -796.86669    14343.381 
    2599 4.1874297e-10   -796.86669            0   -796.86669    14343.381 
    2600 4.8589414e-10   -796.86669            0   -796.86669    14343.381 
    2601 5.5765841e-10   -796.86669            0   -796.86669    14343.381 
    2602 6.3392776e-10   -796.86669            0   -796.86669    14343.381 
    2603 7.1458697e-10   -796.86669            0   -796.86669    14343.381 
    2604 7.9951375e-10   -796.86669            0   -796.86669    14343.381 
    2605 8.8857881e-10   -796.86669            0   -796.86669    14343.381 
    2606 9.8164623e-10   -796.86669            0   -796.86669    14343.381 
    2607 1.0785735e-09   -796.86669            0   -796.86669     14343.38 
    2608 1.179212e-09   -796.86669            0   -796.86669     14343.38 
    2609 1.2834066e-09   -796.86669            0   -796.86669     14343.38 
    2610 1.3909968e-09   -796.86669            0   -796.86669     14343.38 
    2611 1.501816e-09   -796.86669            0   -796.86669     14343.38 
    2612 1.6156928e-09   -796.86669            0   -796.86669     14343.38 
    2613  1.73245e-09   -796.86669            0   -796.86669     14343.38 
    2614 1.8519065e-09   -796.86669            0   -796.86669     14343.38 
    2615 1.973875e-09   -796.86669            0   -796.86669     14343.38 
    2616 2.0981663e-09   -796.86669            0   -796.86669     14343.38 
    2617 2.2245841e-09   -796.86669            0   -796.86669     14343.38 
    2618 2.3529316e-09   -796.86669            0   -796.86669     14343.38 
    2619 2.4830017e-09   -796.86669            0   -796.86669     14343.38 
    2620  2.61455e-09   -796.86669            0   -796.86669     14343.38 
    2621 2.7470761e-09   -796.86669            0   -796.86669     14343.38 
    2622 2.8768497e-09   -796.86669            0   -796.86669     14343.38 
    2623 2.9657198e-09   -796.86669            0   -796.86669     14343.38 
    2624 2.5930617e-09   -796.86669            0   -796.86669    14343.379 
    2625 5.5478248e-10   -796.86669            0   -796.86669    14343.379 
    2626 3.4651827e-11   -796.86669            0   -796.86669    14343.379 
Loop time of 580.077 on 24 procs for 891 steps with 127 atoms

98.6% CPU use with 24 MPI tasks x no OpenMP threads

Minimization stats:
  Stopping criterion = energy tolerance
  Energy initial, next-to-last, final = 
        -796.907788765     -796.866687658     -796.866687659
  Force two-norm initial, final = 1.80237e-06 5.73798e-06
  Force max component initial, final = 1.17913e-06 1.68804e-06
  Final line search alpha, max atom move = 0 0
  Iterations, force evaluations = 891 891

MPI task timing breakdown:
Section |  min time  |  avg time  |  max time  |%varavg| %total
---------------------------------------------------------------
Pair    | 214.03     | 380.7      | 515.7      | 462.5 | 65.63
Neigh   | 0          | 0          | 0          |   0.0 |  0.00
Comm    | 0.32842    | 135.32     | 302        | 775.7 | 23.33
Output  | 0.15959    | 0.15978    | 0.16045    |   0.0 |  0.03
Modify  | 7.2107     | 7.2115     | 7.2124     |   0.0 |  1.24
Other   |            | 56.68      |            |       |  9.77

Nlocal:    5.29167 ave 7 max 3 min
Histogram: 4 0 0 0 0 9 0 7 0 4
Nghost:    758.125 ave 793 max 714 min
Histogram: 6 2 0 0 0 1 6 1 0 8
Neighs:    0 ave 0 max 0 min
Histogram: 24 0 0 0 0 0 0 0 0 0
FullNghs:  1068.33 ave 1409 max 616 min
Histogram: 4 0 0 0 5 4 0 7 0 4

Total # of neighbors = 25640
Ave neighs/atom = 201.89
Neighbor list builds = 0
Dangerous builds = 0
Total wall time: 0:28:56
